9
Lattice="20.0 0.0 0.0 0.0 20.0 0.0 0.0 0.0 20.0" Properties=species:S:1:pos:R:3:REF_forces:R:3 REF_energy=-7255.186911893284 config_type=Default pbc="T T T"
C        0.77260114       0.17264424       0.90373564      -1.68576551       2.03629562       1.40324525
C       -0.08181627      -0.78844718       0.15177832      -0.74837669      -0.27275774       1.86482953
C       -0.11399659      -0.45186952      -1.25920043      -1.17341501      -0.06364226      -2.07160931
O       -0.95214351       0.27719070      -1.75593484      -0.19855184       0.42004441       0.22332519
O        0.41759203       0.71078767       1.94808548       0.80578223      -0.62103438      -0.64514032
H        1.65041912       0.49704253       0.33212562       1.22486962       0.14419903      -0.06184922
H        0.49226426      -1.67607030       0.39291652       0.15058360      -1.36893897      -0.31434538
H       -1.10908698      -0.83255301       0.61579766       0.63055044       0.06724797      -0.27376643
H        0.57689671      -0.94772561      -1.96379266       0.99432317      -0.34141365      -0.12468925
9
Lattice="20.0 0.0 0.0 0.0 20.0 0.0 0.0 0.0 20.0" Properties=species:S:1:pos:R:3:REF_forces:R:3 REF_energy=-7255.365530191345 config_type=Default pbc="T T T"
C        0.80217164       0.72024224       0.97441178       0.02928245      -1.29637405      -0.56816299
C        0.69190603      -0.39293479      -0.15713495      -0.87300588      -0.29708978       2.11656407
C       -0.66689431      -0.40867363      -0.82288825       0.60527686      -0.30779899      -0.67472035
O       -0.88110139      -0.63549109      -1.99349141      -0.05686236       0.22743639       0.00714299
O        0.11682977       0.73987811       1.98677588       0.71572286       0.25722313      -1.11264673
H        1.64262266       1.44290741       0.68446005      -0.50262289       0.14068655       0.58378748
H        1.53280581      -0.38758220      -0.85075613       0.37355619      -0.09819207      -0.32483209
H        0.54063472      -1.41214560       0.38994447       0.74319777       1.11756622      -0.47376200
H       -1.44286769      -0.32982843      -0.05020518      -1.03454500       0.25654266       0.44662961
9
Lattice="20.0 0.0 0.0 0.0 20.0 0.0 0.0 0.0 20.0" Properties=species:S:1:pos:R:3:REF_forces:R:3 REF_energy=-7254.792889182979 config_type=Default pbc="T T T"
C        0.30444392       0.60039087       1.07422924      -0.82398116       0.90331178       0.03745850
C       -0.59547740      -0.23750117       0.19496166       0.87671999      -0.55804271       1.58999460
C       -0.20398133       0.14264006      -1.22245733      -0.35098736      -2.43320514       0.86425729
O       -0.35041445      -0.64141344      -2.12299603       0.33899115       0.54950444      -1.38263986
O        0.82843613       0.16006341       2.07329927       0.23194482       0.50780665      -0.02267682
H        0.49256042       1.70024745       0.61982904       0.06354060      -1.26494330       0.89384277
H       -0.67736531      -1.26505586       0.73344597       0.67021403       0.75595394      -1.59145730
H       -1.64962862      -0.01891048       0.07199551      -1.14808095       1.05899444       0.59172637
H        0.14368094       1.20118551      -1.19331805       0.14163888       0.48061991      -0.98050550
9
Lattice="20.0 0.0 0.0 0.0 20.0 0.0 0.0 0.0 20.0" Properties=species:S:1:pos:R:3:REF_forces:R:3 REF_energy=-7254.93230316578 config_type=Default pbc="T T T"
C        0.99432377       0.52727825       0.76206273      -1.09497415       0.44282155      -0.33158525
C        0.50245615       0.29465280      -0.64240170      -1.86780990      -2.14461512       1.31670767
C       -0.90952965      -0.49932664      -0.59267586       2.09539459       0.99484187       2.97120333
O       -1.05576680      -1.50612862      -1.20232278      -0.81750260      -1.11798814      -1.42522134
O        0.49374130       1.24001746       1.62128838       0.47987423      -0.57973639      -0.61400303
H        1.85111164      -0.14081948       0.82180257       1.41208305      -0.45018663       1.39576514
H        0.37247089       1.21871951      -1.09503579      -0.35974422       2.43848876      -1.55832863
H        1.16259105      -0.40532745      -1.15335681       0.41795518       0.04029443      -0.59233393
H       -1.46424111      -0.29191679       0.41266049      -0.26527619       0.37607968      -1.16220397
9
Lattice="20.0 0.0 0.0 0.0 20.0 0.0 0.0 0.0 20.0" Properties=species:S:1:pos:R:3:REF_forces:R:3 REF_energy=-7255.239353454934 config_type=Default pbc="T T T"
C       -0.11078633      -0.28015300       0.98291668      -0.42160898      -1.22563776       1.04869079
C        0.80155966       0.18531902      -0.12696829       1.28823970      -0.36212162       1.89811909
C        0.07934645       0.32807682      -1.42761677       3.04469785       0.66355888      -1.13963436
O       -1.10318716       0.40920983      -1.55002601      -1.85424342      -0.05920705      -0.03593693
O        0.36029003      -0.62412255       2.05633889      -0.32361441       0.26389741      -0.09683926
H       -1.24453304      -0.43891153       0.78829206       0.90794758       0.49128952      -0.14655555
H        1.29723065       1.11368159       0.32467820      -0.69198783      -0.13208076      -0.91878586
H        1.76684837      -0.47760199      -0.00232998      -1.46354924       0.57071876      -0.93881794
H        0.79433905       0.43563623      -2.33550096      -0.48588131      -0.21041743       0.32975992
9
Lattice="20.0 0.0 0.0 0.0 20.0 0.0 0.0 0.0 20.0" Properties=species:S:1:pos:R:3:REF_forces:R:3 REF_energy=-7254.969537745771 config_type=Default pbc="T T T"
C        0.57764403       0.40057808       1.02167437       0.68933028       0.26990453       0.13790369
C        0.00261838       0.38541740      -0.34314543      -0.33823905      -0.75082192      -0.40450646
C       -1.05327568      -0.61658428      -0.64941899       0.19470897      -1.99458487      -1.41181658
O       -0.70009709      -1.58110792      -1.38708019      -2.05618460       2.01002831       2.03674706
O        1.09630916       1.42582489       1.36605117       0.74433358       1.62652385       1.22547295
H        0.74889041      -0.48396575       1.66487931      -0.52597118      -0.94110689      -0.01304917
H       -0.10682793       1.43994448      -0.61742044      -0.52103904       0.29986128      -0.20050557
H        0.79607272      -0.05816031      -0.94806073       0.86702827       0.13289328      -0.44366709
H       -2.09246614      -0.45091457      -0.11249454       0.94603287      -0.65269756      -0.92657882
9
Lattice="20.0 0.0 0.0 0.0 20.0 0.0 0.0 0.0 20.0" Properties=species:S:1:pos:R:3:REF_forces:R:3 REF_energy=-7255.223385333896 config_type=Default pbc="T T T"
C        0.59588058       0.34874497       1.30491684       0.86577290       1.56843831      -0.39843223
C        0.41208938       0.62109834      -0.19808795       0.67686172      -2.07085264      -0.99636026
C       -0.37883321      -0.46572077      -0.94904864       0.18098833      -0.76355859      -4.26171583
O       -0.30491124      -0.61128297      -2.21823530      -0.12118745       0.73330725       4.24064328
O       -0.28604857       0.14060491       2.09822469      -0.68626301      -0.53182522       0.02975975
H        1.65844537       0.53942730       1.67486772      -0.07939294      -0.37790989      -0.18819503
H       -0.14291454       1.53082007      -0.44010035      -0.13644227       0.74756772       0.27187544
H        1.37473291       0.59788750      -0.81616975      -0.58720709       0.53885755       0.88247577
H       -1.00816942      -1.20329949      -0.39376954      -0.11313018       0.15597551       0.41994907
9
Lattice="20.0 0.0 0.0 0.0 20.0 0.0 0.0 0.0 20.0" Properties=species:S:1:pos:R:3:REF_forces:R:3 REF_energy=-7255.074128949676 config_type=Default pbc="T T T"
C        0.05479851       0.06751058       1.06869261       0.94070421      -3.37512466       0.68716541
C        0.04723480      -0.83958993      -0.16779067      -1.28386944       3.80301710      -1.55000818
C        0.09736666       0.00040196      -1.51308258       0.63379893      -3.34056934       1.99769843
O       -0.18828601       1.13893144      -1.61187822      -0.69626018       2.84081498      -0.23466263
O       -0.00406930      -0.39543723       2.19388594      -0.54711763       0.16503186       0.09672531
H        0.39199701       1.06252897       0.93118037       0.13620373       2.35753660      -0.61999838
H        0.71305026      -1.63870197      -0.24207432       2.26739419      -1.62824269       0.41888371
H       -0.86119716      -1.39596781      -0.27988203      -1.67651525      -0.50250812       0.16608267
H        0.43182988      -0.63348221      -2.35286910       0.22566145      -0.31995563      -0.96188634
9
Lattice="20.0 0.0 0.0 0.0 20.0 0.0 0.0 0.0 20.0" Properties=species:S:1:pos:R:3:REF_forces:R:3 REF_energy=-7255.210727790355 config_type=Default pbc="T T T"
C       -0.16394762      -0.56123434       1.40361651       0.12759608      -0.98934747      -1.91163692
C        0.70035769      -0.21198500       0.23223650       0.79273018       0.49938464      -0.20170443
C        0.13660520       0.52647333      -0.97377588      -2.76596523      -0.04971860       2.48261146
O        0.67628384       0.44237344      -2.03041812       0.55953693       0.44119939      -1.77536388
O       -1.30519807      -0.19593840       1.42249535      -1.58100720       0.51861649       1.14669358
H        0.27792737      -1.34301359       2.07743066       0.05215827       0.11582316       0.64883474
H        1.46289543       0.44476325       0.69153953       0.72325254      -0.01183165      -0.22331918
H        1.16060689      -1.07850046      -0.27310987       0.61743247      -0.33501052       0.57279020
H       -0.93973132       1.00600230      -0.73546928       1.47426595      -0.18911538      -0.73890557
9
Lattice="20.0 0.0 0.0 0.0 20.0 0.0 0.0 0.0 20.0" Properties=species:S:1:pos:R:3:REF_forces:R:3 REF_energy=-7255.107694131734 config_type=Default pbc="T T T"
C        0.20569098       0.58762702       0.90055562       1.39078434      -1.79789497       2.71909700
C        0.69580071      -0.32636361      -0.19546240       0.07028553       1.70271345      -0.08337254
C       -0.33628060      -0.72643009      -1.18777661       0.18469946      -3.09485159      -2.09760075
O       -1.35126265      -0.16034498      -1.51653008      -0.30246637       1.12664839       0.59032492
O        0.80762587       0.57135726       1.97538760      -0.81654486       0.65568262      -0.79843525
H       -0.67492736       1.20841508       0.71701061      -0.70370640       0.59880683      -0.36979143
H        1.20562134       0.57857962      -0.61237075       0.47112693      -0.31383625      -0.95159967
H        1.51846393      -0.99888975       0.14519391      -0.61381107      -0.11483369      -0.17770462
H       -0.15649561      -1.76852865      -1.78177105       0.31963250       1.23756526       1.16908234
9
Lattice="20.0 0.0 0.0 0.0 20.0 0.0 0.0 0.0 20.0" Properties=species:S:1:pos:R:3:REF_forces:R:3 REF_energy=-7255.016835779642 config_type=Default pbc="T T T"
C       -0.10949750      -0.38328582       1.45160302      -2.70813649       0.46607194      -1.23188986
C        0.44188593       0.53444831       0.38952974      -1.02541912      -1.92983658      -1.12065864
C        0.11535886       0.17650857      -1.13453854       0.12917310      -2.26918131       0.58073239
O        0.88100680       0.46872014      -1.99859018       1.18069992       1.07573422      -1.15978435
O       -1.28648588      -0.78785960       1.36064551       2.22805323       0.14117799       0.69692954
H        0.58383862      -0.52862507       2.31636592      -0.06100806      -0.53205086       0.32517610
H       -0.18630793       1.38795731       0.30784478      -0.96286568       1.83712929       0.81137016
H        1.46235053       0.81351891       0.58702436       1.05462968       0.33909677      -0.38859144
H       -0.76053788      -0.51083255      -1.50476513       0.16487332       0.87185850       1.48671606
9
Lattice="20.0 0.0 0.0 0.0 20.0 0.0 0.0 0.0 20.0" Properties=species:S:1:pos:R:3:REF_forces:R:3 REF_energy=-7254.57641956953 config_type=Default pbc="T T T"
C        0.38750218      -0.32962742       1.16442469       1.54267164       0.90142274      -2.94684701
C        0.84911324       0.12964776      -0.38597037      -0.97733379       2.14324020       3.15321002
C       -0.07456596      -0.37705791      -1.38431702      -1.81069099      -0.99786240      -1.27467024
O       -1.21581349       0.04616375      -1.43749496      -0.43291525       0.18196165      -0.26534592
O        0.12979524       0.47375485       1.98850062      -0.60648862       1.72175396       1.37067755
H        0.39981915      -1.36578380       1.42905771      -0.03780884      -2.06658147      -0.13766046
H        0.99912031       1.27164271      -0.26664933      -1.57504353      -0.90488427      -0.27931312
H        1.84507297       0.02838879      -0.62294772       3.32628861      -1.90562800      -0.37830651
H        0.14609153      -1.31031809      -2.06628372       0.57132081       0.92657764       0.75825575
9
Lattice="20.0 0.0 0.0 0.0 20.0 0.0 0.0 0.0 20.0" Properties=species:S:1:pos:R:3:REF_forces:R:3 REF_energy=-7255.140522676414 config_type=Default pbc="T T T"
C       -0.10034798      -0.49573614       1.08750763      -3.12103267      -0.45062619      -1.76075107
C       -0.54039299       0.69934657       0.31681743      -0.50829469       0.18842669      -1.51179192
C       -0.31369906       0.59210724      -1.21099836      -0.78141660       0.74699699      -1.30806183
O        0.07028932      -0.27641782      -1.97508582      -0.15407994       0.25730777       1.35067128
O        0.81627026      -0.49594078       1.82216882       2.88442690      -0.13544072       2.24371531
H       -0.71602657      -1.41400882       0.86372245      -0.04423408      -0.33903409       0.10472190
H       -1.63829867       1.10202741       0.42496230       1.70823058      -0.58929910       0.16271468
H        0.24704691       1.45352372       0.46406384      -0.20422920       0.85245217       0.74077533
H       -0.59379520       1.63730574      -1.62915976       0.22062965      -0.53078352      -0.02199368
9
Lattice="20.0 0.0 0.0 0.0 20.0 0.0 0.0 0.0 20.0" Properties=species:S:1:pos:R:3:REF_forces:R:3 REF_energy=-7254.980039715887 config_type=Default pbc="T T T"
C        1.03388594       0.39208015       1.00667125       0.62936270       0.39147863      -1.13805334
C        0.64004209      -0.14122796      -0.32425781      -2.72312546      -1.39217438       0.30032392
C       -0.83815758      -0.30549343      -0.75877730      -1.16697954      -2.20525633       1.39726352
O       -1.18794156      -0.46090628      -1.91293152       0.47933723       0.71298968       0.20886660
O        0.40837371       0.50958151       2.01331666      -1.15505599      -0.27610938       1.54267956
H        2.00512711       0.90610793       0.84896005       1.01452567       0.18068494       0.49698534
H        0.91769009       0.62929725      -0.95278030       1.52241037       1.99291248      -2.25271900
H        1.10732421      -1.07239496      -0.66912247       0.55574260      -0.24371348       0.08103171
H       -1.61646778      -0.58378216       0.08942999       0.84378246       0.83918790      -0.63637836
9
Lattice="20.0 0.0 0.0 0.0 20.0 0.0 0.0 0.0 20.0" Properties=species:S:1:pos:R:3:REF_forces:R:3 REF_energy=-7255.023187382566 config_type=Default pbc="T T T"
C        0.44773355      -0.83794397       1.02543692      -0.94115790       0.34299452      -1.86037720
C        0.18476909      -0.76011234      -0.51044761      -2.51325145      -1.95886053       1.42421748
C       -0.21644796       0.60368798      -0.90246158       0.67056935       1.42839819       0.79547308
O       -1.29707639       0.92250818      -1.35215723       0.17708689      -0.09292476      -0.32742530
O        0.95055907       0.02395766       1.68654212       0.58335836       0.14749838       0.83617724
H       -0.15129925      -1.72641890       1.33340638       0.37631735      -0.51776201       1.22466506
H        0.91255359      -1.36755413      -1.01582513       1.24643377      -0.09924941      -0.89477711
H       -0.75184806      -1.44437294      -0.55828394       0.85439598       0.82267849      -0.45262687
H        0.53166752       1.36448466      -0.44997890      -0.45375229      -0.07277286      -0.74532639
9
Lattice="20.0 0.0 0.0 0.0 20.0 0.0 0.0 0.0 20.0" Properties=species:S:1:pos:R:3:REF_forces:R:3 REF_energy=-7255.016568471908 config_type=Default pbc="T T T"
C       -0.50032539       0.08871282       1.02922455       1.40759838       2.57756122      -0.69482828
C       -0.45491093      -0.47383719      -0.32759350      -1.90606992      -0.89967557      -1.46888942
C        0.26332262       0.20630461      -1.42580190       2.46072942       0.55337914       2.28970704
O        1.33615805       0.75366749      -1.29659820       0.97874712       0.41242371       0.39803849
O       -0.68253351      -0.59661933       1.97789573      -0.56472861      -1.22139776       2.31090034
H       -0.28683308       1.23096781       1.10971620      -0.35762846      -0.64541656      -0.01236680
H       -0.15549377      -1.55701211      -0.19574048      -0.56225310       0.46987398      -0.47893897
H       -1.52076764      -0.31616241      -0.73579135       0.47066197      -1.02273175       0.70046892
H       -0.16880236       0.28091356      -2.36340756      -1.92705681      -0.22401636      -3.04409143
9
Lattice="20.0 0.0 0.0 0.0 20.0 0.0 0.0 0.0 20.0" Properties=species:S:1:pos:R:3:REF_forces:R:3 REF_energy=-7254.59219892082 config_type=Default pbc="T T T"
C        1.18482953       0.47744204       0.52199091      -0.41423279       0.63849916      -1.79064796
C        0.72402957      -0.63284208      -0.38814379      -1.77975239      -3.60424553      -0.48646315
C       -0.66360187      -0.23635334      -1.04310137      -1.17215743      -1.66286542       0.94652200
O       -1.74226559      -0.59948340      -0.57499745       1.51183028       0.77251287      -0.49984348
O        0.61023487       0.99461802       1.46197221       0.47625541      -0.85863902      -0.09839735
H        1.93571592       0.93660527      -0.13773193       1.51094613       1.34080349       0.68273684
H        1.33289989      -1.20009253      -1.22136265       0.07066677       2.12116342       0.96831991
H        0.50494037      -1.60528702       0.15775334      -0.51234691       0.88047452       0.32707980
H       -0.64459049       0.26558306      -2.04320218       0.30879092       0.37229650      -0.04930666
9
Lattice="20.0 0.0 0.0 0.0 20.0 0.0 0.0 0.0 20.0" Properties=species:S:1:pos:R:3:REF_forces:R:3 REF_energy=-7255.350666904046 config_type=Default pbc="T T T"
C        0.16495629      -0.20363550       1.07116102       1.92971646       0.41129952      -2.59069081
C       -0.44359803      -0.90091930      -0.18857326       0.65189445       0.05237373       0.92477694
C       -0.23924942       0.09839614      -1.31585351       0.64234934      -0.24319967      -0.30735496
O        0.80708423       0.64351533      -1.60541143       0.26428621      -0.10608186       0.25242674
O       -0.34423332       0.27433661       2.03129971      -1.15039685      -0.03959782       1.34014991
H        1.25760230       0.05063724       0.76225001      -0.44741221      -0.34382241       0.65628621
H        0.20461528      -1.81480874      -0.35801082      -0.56427507       0.46782671      -0.01998884
H       -1.50849774      -1.12173681      -0.07887972      -0.37325923      -0.38762614       0.07486985
H       -1.13106471       0.30674051      -1.92282887      -0.95290306       0.18882793      -0.33047504
9
Lattice="20.0 0.0 0.0 0.0 20.0 0.0 0.0 0.0 20.0" Properties=species:S:1:pos:R:3:REF_forces:R:3 REF_energy=-7255.034830276961 config_type=Default pbc="T T T"
C       -0.18534767      -0.61479119       1.10048851      -1.11561764       0.05430617       0.58087272
C        0.26431230       0.74523135       0.35117265      -2.95614916      -1.97235013      -0.07582872
C        0.19043261       0.64719796      -1.19819066      -2.44238861       2.13281849      -0.30756065
O        0.95915086       0.17967371      -1.98534192       1.19588552      -0.84825603       0.08423844
O       -1.20110919      -0.90078990       1.73502702       1.20715739       1.26884968      -1.29885687
H        0.63118118      -1.34767846       1.09414553       0.75596109      -0.64950636      -0.28114154
H       -0.43529409       1.48068488       0.77526512      -0.06289417       0.47066115      -0.34966524
H        1.22009397       0.83703968       0.78124494       2.16614322       0.48083953       0.29585596
H       -0.78702774       1.21084979      -1.69771299       1.25190225      -0.93736249       1.35208590
9
Lattice="20.0 0.0 0.0 0.0 20.0 0.0 0.0 0.0 20.0" Properties=species:S:1:pos:R:3:REF_forces:R:3 REF_energy=-7255.291387505734 config_type=Default pbc="T T T"
C        0.45265152      -0.14425058       0.90936274       1.69868731       1.66585073       0.99795445
C        0.54180827       0.58863993      -0.48322391      -0.09700232      -0.36757637       0.26349966
C       -0.80918912       0.16172683      -1.07940747       0.91243920       0.18182384       0.14807816
O       -0.91035902      -1.01980711      -1.36098697      -0.97046421       0.43955450      -0.36368552
O        0.73164222       0.46047229       1.94296709      -0.57710950      -0.85154344      -1.08882052
H        0.17862366      -1.22444421       0.92046342      -0.20918582      -0.25750945      -0.26995621
H        0.65317212       1.65930951      -0.22567059      -0.08498828       0.07214978      -0.15248107
H        1.45800355       0.26059702      -1.10921623      -1.22228941       0.01331600       0.74656227
H       -1.66224244       0.96128890      -1.03917535       0.54991299      -0.89606559      -0.28115121
9
Lattice="20.0 0.0 0.0 0.0 20.0 0.0 0.0 0.0 20.0" Properties=species:S:1:pos:R:3:REF_forces:R:3 REF_energy=-7255.256747531251 config_type=Default pbc="T T T"
C       -0.02259703       0.67179817       1.15322219      -1.03733428       1.86341588       0.19145997
C        0.24682742       0.57953974      -0.36828181      -1.05350853      -1.02307181       1.36061121
C       -0.22183275      -0.78961941      -0.89732669       0.51700210      -1.37676762       0.16495575
O       -0.75479232      -0.98088302      -1.97610919       0.33367586       0.18839156       1.03205529
O        0.75544661       0.53752714       2.06963124       0.18053900      -0.55541186      -0.41494936
H       -1.09662064       1.12838891       1.38401116       0.91265465      -0.86423183      -0.32233102
H       -0.29840828       1.39838215      -0.82685222      -0.52163887       0.39372567      -0.57453552
H        1.29478666       0.72986338      -0.57174633       1.19487554      -0.18580776      -0.09663476
H        0.05970699      -1.72020400      -0.13073849      -0.52626547       1.55975781      -1.34063158
9
Lattice="20.0 0.0 0.0 0.0 20.0 0.0 0.0 0.0 20.0" Properties=species:S:1:pos:R:3:REF_forces:R:3 REF_energy=-7255.079856920396 config_type=Default pbc="T T T"
C        0.74734316       0.85217744       0.71557422       0.10840383       0.79924365       0.20635339
C        0.27679640      -0.19085608      -0.28253250      -2.45857561       2.49853800      -0.80445466
C       -1.22080009      -0.54335804      -0.19341304       1.20075987      -1.63616138      -2.58308626
O       -1.70871922      -1.31999182      -1.00362994       0.09758910       0.20898291       0.11167473
O        1.89413323       1.21533826       0.80118790       1.22533669      -0.12894314      -0.16897943
H        0.05559262       1.45390315       1.40820610      -0.67177834      -0.90680827      -0.53836524
H        0.46889466       0.12099375      -1.38191212      -0.12167740      -0.02496454       1.29344331
H        0.74613677      -1.12274140      -0.23369810       1.56414226      -2.07478756       0.47540206
H       -1.87192359      -0.19585426       0.56538344      -0.94420044       1.26490031       2.00801215
9
Lattice="20.0 0.0 0.0 0.0 20.0 0.0 0.0 0.0 20.0" Properties=species:S:1:pos:R:3:REF_forces:R:3 REF_energy=-7255.039039179837 config_type=Default pbc="T T T"
C       -0.67971181      -0.44979695       1.06834190       0.42020464       1.46788705      -1.91286349
C       -0.45278120       0.78807082       0.12975902      -2.70977279      -1.33517802      -1.28234797
C       -0.13006528       0.30394223      -1.37936459       3.46531901       0.57230390       0.04713855
O        1.05949264       0.06522454      -1.75748055      -3.89441719       0.61483673       1.43492597
O        0.11862750      -0.66612729       1.92940796       0.25764927      -0.94670897       1.31119153
H       -1.58620341      -1.05123537       0.77834834      -0.09946312      -0.34648160       0.44406432
H       -1.49957092       1.34201027       0.24975416       1.88337937      -0.51213325      -0.66081721
H        0.39270146       1.30856788       0.54674017       0.70826183       0.68688167       0.19558412
H       -0.96448401       0.28706179      -2.14397699      -0.03116095      -0.20140752       0.42312423
9
Lattice="20.0 0.0 0.0 0.0 20.0 0.0 0.0 0.0 20.0" Properties=species:S:1:pos:R:3:REF_forces:R:3 REF_energy=-7255.120895469712 config_type=Default pbc="T T T"
C        0.17733880       0.33272103       1.15734115      -1.41984994       0.55875696      -2.51465147
C        0.68518496      -0.11895704      -0.28162546      -1.52710099       0.16259394       1.14079146
C       -0.47635613      -0.70590170      -1.07723269       0.95336720      -2.61016939       0.04286589
O       -1.31947428      -0.23993061      -1.79299706      -0.38260678       1.96240690      -0.39848962
O        0.95521704       0.69769528       1.97167540       1.10410923       0.27123775       1.79913985
H       -0.96935732       0.48459541       1.25190478       0.66937215      -0.39146583       0.13981350
H        1.21529440       0.73220709      -0.69304002      -0.13312164       1.03686321      -0.55532274
H        1.51010328      -0.77514109      -0.01544718       0.23274129      -1.11001849      -0.23592792
H       -0.57723782      -1.84281393      -0.97837135       0.50308944       0.11979494       0.58178094
9
Lattice="20.0 0.0 0.0 0.0 20.0 0.0 0.0 0.0 20.0" Properties=species:S:1:pos:R:3:REF_forces:R:3 REF_energy=-7254.757153501724 config_type=Default pbc="T T T"
C        0.92869790       0.32120015       0.99343083      -0.31253106       1.00724559      -0.81149702
C        0.71016701      -0.54335298      -0.34844661       0.04446003       0.97148149       2.01921836
C       -0.62870267      -0.90556705      -1.02372524       2.28291018       0.63549344       2.99719914
O       -1.69093626      -0.47091196      -0.75744463      -2.53001026       0.54711892      -0.30980127
O        0.71772211       1.52465748       1.12083291      -0.09469681      -1.29755841      -0.63172287
H        1.40940882      -0.18423431       1.89452688      -0.25489778      -0.56113714      -0.52969090
H        0.99331364       0.03670173      -1.24444525       1.18978923       0.30207464       0.01452858
H        1.25748057      -1.49925849      -0.21158855       0.29293622       0.15885823      -0.43452430
H       -0.25077851      -1.64093142      -1.69359853      -0.61795975      -1.76357681      -2.31370963
9
Lattice="20.0 0.0 0.0 0.0 20.0 0.0 0.0 0.0 20.0" Properties=species:S:1:pos:R:3:REF_forces:R:3 REF_energy=-7254.748180400747 config_type=Default pbc="T T T"
C        1.28184805      -0.56700076       0.36459399      -4.29171444       0.03642137      -3.00510374
C       -0.33526091      -0.50079617       0.05785841       0.65845360      -1.91150487      -0.20740806
C       -0.75592843       0.70399483      -0.69002089       0.26089204       2.80445217       0.93459393
O       -1.81808466       0.97486372      -1.19512543      -1.30820118      -0.95676481      -0.44462554
O        1.66879359      -0.63513827       1.46633754       1.65840394      -0.20857205       2.75280622
H        1.85528396      -0.51209572      -0.59080740       0.73252332       0.06255160      -0.11210838
H       -0.77369631      -1.20566608      -0.70525437       1.05046897      -0.62762067      -0.02621944
H       -0.93683287      -0.92144292       0.91887729       0.30967343       1.14729604       0.00909281
H       -0.04848765       1.58247378      -0.73951633       0.92950037      -0.34625884       0.09897215
9
Lattice="20.0 0.0 0.0 0.0 20.0 0.0 0.0 0.0 20.0" Properties=species:S:1:pos:R:3:REF_forces:R:3 REF_energy=-7254.911519608914 config_type=Default pbc="T T T"
C        0.19052515       0.64789329       1.17845725       1.92046450       0.12924863      -4.88063373
C        0.20648737       0.60148705      -0.37485032       0.04728320      -2.41554845       0.33156504
C       -0.88127938      -0.41570105      -0.89766567       0.36684443      -0.68315737       0.50530435
O       -0.68441268      -1.25865386      -1.75893348      -0.26411904       0.92178665       0.67205509
O        1.14490548       0.49900327       1.85001964       2.57193313      -0.50105997       2.01526158
H       -0.74068938       0.81303605       1.49182857      -5.15138272       0.90532392       2.52636665
H       -0.13245667       1.50374112      -0.89635475       0.38649876       0.81165062       0.05686139
H        1.22440759       0.17803277      -0.61262484      -0.52569057       0.71362762      -0.56246316
H       -1.89184527      -0.37003487      -0.30790183       0.64816836       0.11812836      -0.66431720
9
Lattice="20.0 0.0 0.0 0.0 20.0 0.0 0.0 0.0 20.0" Properties=species:S:1:pos:R:3:REF_forces:R:3 REF_energy=-7255.129725336961 config_type=Default pbc="T T T"