18
Lattice="20.0 0.0 0.0 0.0 20.0 0.0 0.0 0.0 20.0" Properties=species:S:1:pos:R:3:REF_forces:R:3 REF_energy=-10478.698710207707 config_type=Default pbc="T T T"
C       -1.20008050      -1.41616658       0.04399226      -0.55215314      -0.25247384       0.21723122
C       -2.39949386      -0.72816991       0.12367514      -1.15343368      -1.86355112      -0.20333322
C       -2.45509779       0.65926177       0.06217706      -0.22933309      -1.70821603       0.19848129
C       -1.29845642       1.31844785      -0.04250417       2.62843240       0.63683797      -0.90625004
C       -0.01890134       0.66747765      -0.14661473       1.26291002       1.48605626       0.19304583
C        1.25519161       1.47046540      -0.15908218      -3.35101460      -1.36014656       0.07934095
C        2.41311735       0.79315403       0.11634525       0.85587842       0.97315034      -0.24429331
C        2.39487896      -0.63235497       0.12804634       1.20120909       1.11945131      -0.12714840
C        1.27332339      -1.37011440      -0.04599700       1.63692196      -2.05489817      -0.46888287
C        0.05503766      -0.76373569      -0.09556162      -3.09897625       1.51725439       0.37680138
H       -1.28086734      -2.47740536       0.25346079       0.38236721      -0.74097120      -0.26737657
H       -3.37762009      -1.31083140       0.18498822       1.03902705       0.47382535       0.14911437
H       -3.40298911       1.09068005       0.15732082      -1.75340671       1.32652929       0.04232751
H       -1.32161567       2.37653596      -0.16310697       0.14330018       1.46847634       0.11681853
H        1.04964436       2.53358587      -0.36467393       0.73845229       0.13517703       0.31417152
H        3.35153330       1.40644356       0.23290692      -0.41764716      -0.76808260      -0.11573924
H        3.33419853      -1.14894560       0.13368316       1.01938937      -0.43053405       0.22833946
H        1.41522533      -2.44939041      -0.24899792      -0.35192329       0.04211529       0.41735154
18
Lattice="20.0 0.0 0.0 0.0 20.0 0.0 0.0 0.0 20.0" Properties=species:S:1:pos:R:3:REF_forces:R:3 REF_energy=-10478.345476992354 config_type=Default pbc="T T T"
C       -1.08887818      -1.48193360       0.08959454      -2.47975095      -1.58494608       1.26585300
C       -2.36330729      -0.89812809      -0.03059438      -0.27937699       1.02698081      -0.18875327
C       -2.58019304       0.52827698      -0.15749354       1.92354566       1.41931289      -0.15666708
C       -1.35411024       1.34983711      -0.17424902      -1.96932034      -3.99905220      -0.14106938
C       -0.09728526       0.66305996      -0.15529308       2.13912201       2.69024089       0.59743355
C        1.14353393       1.48166499      -0.22806941       0.92444049      -2.63381120      -0.70474852
C        2.47010669       0.80995686      -0.21728848      -3.48691900       3.42748882       1.04334789
C        2.48913005      -0.50899566       0.22935670       1.07763329      -0.64701975       0.55233476
C        1.31827879      -1.24721217       0.43350864       1.77272742       0.75892850      -0.54068082
C        0.05110112      -0.72618861       0.14079020       0.64649442       1.21934524      -0.81606772
H       -0.97126527      -2.54871733       0.41071565      -0.40323598       0.33980624      -0.51196294
H       -3.27576878      -1.49359267       0.03748511      -0.11511137      -0.48997168      -0.07506341
H       -3.63164536       1.02078297      -0.26656621       1.64754061      -0.93642697       0.33888342
H       -1.30369394       2.40498807      -0.15077173      -0.35690511       1.68275465      -0.27905056
H        0.99282270       2.55748540      -0.40310727       0.35256478       0.08938044       0.01072001
H        3.35321818       1.48469893      -0.11581502      -0.16717045      -0.49376920      -0.54561888
H        3.53729587      -0.83616670       0.51200411      -1.09037696      -0.48277259      -0.22353839
H        1.43764241      -2.23602105       0.80765715      -0.13590162      -1.38646895       0.37464839
18
Lattice="20.0 0.0 0.0 0.0 20.0 0.0 0.0 0.0 20.0" Properties=species:S:1:pos:R:3:REF_forces:R:3 REF_energy=-10478.390508269154 config_type=Default pbc="T T T"
C       -1.20928449      -1.37522464       0.40998539       0.97516095       0.62110688      -0.40342269
C       -2.37194342      -0.76299758       0.00996017      -1.30605621      -1.16020689      -0.08112699
C       -2.50738701       0.55158943      -0.42924243      -0.03096025      -0.09478336       0.56814427
C       -1.41320025       1.32053559      -0.45808768       3.96732324       0.01951071      -0.46770238
C       -0.04805608       0.66394321      -0.16567846      -0.48112451       2.90456198       0.77760566
C        1.19209230       1.42339240      -0.28829957      -0.89611475      -0.54230967      -0.41679361
C        2.41554518       0.75462997      -0.12319510      -0.15236666       1.66026917      -1.06225300
C        2.51535945      -0.62012901       0.16286800      -1.83294764       0.59430025       1.28530515
C        1.38524192      -1.31239914       0.56524751      -2.27031789       2.29626721      -1.10696505
C        0.06378745      -0.63910244       0.41517752      -0.47423519      -1.93069445      -1.20909559
H       -1.26147245      -2.46020826       0.38283588       0.34446292      -0.60551258       0.77169655
H       -3.30724753      -1.32399403      -0.11617479       0.06678867      -0.64721386       0.24399614
H       -3.43715673       0.94594835      -0.78474963      -1.08485840       0.23893925      -0.18319511
H       -1.51892979       2.32629316      -0.92110161       0.65911545      -0.13217943       0.36452390
H        1.12655705       2.50669545      -0.61527075       0.24513334      -0.94329284       0.33712371
H        3.29521887       1.38641751      -0.36208053       0.14088185      -0.43248140       0.27391350
H        3.42336791      -1.09082517       0.38780317       2.12373288      -0.76390374      -0.14799480
H        1.41576126      -2.34082491       0.85279931       0.00638215      -1.08237728       0.45624030
18
Lattice="20.0 0.0 0.0 0.0 20.0 0.0 0.0 0.0 20.0" Properties=species:S:1:pos:R:3:REF_forces:R:3 REF_energy=-10478.251019322228 config_type=Default pbc="T T T"
C       -1.15717336      -1.43412345       0.20455774      -0.63335603      -4.64001360      -0.46601959
C       -2.41656238      -0.89605521       0.06900765      -1.39542488       0.56886109      -0.89007255
C       -2.43894660       0.55151600      -0.21350469      -0.26864572      -0.96004939       1.19605866
C       -1.28936866       1.32484656      -0.21526419      -0.02174264      -0.18858851      -0.46019563
C       -0.00687102       0.71386143      -0.16909276      -0.61794247       0.52464989       0.18973270
C        1.19582449       1.48838785      -0.13025060      -0.15192494      -1.32447246      -0.94872286
C        2.40190992       0.78525476      -0.02292515       0.31317332       4.63628406      -0.02685008
C        2.42311537      -0.55905139       0.19588370       1.01713451       0.14486094       0.39143513
C        1.26756256      -1.26536825       0.28095926      -0.26513565       0.38895653      -1.29872163
C       -0.01325586      -0.72589545      -0.02723435       3.14646967       2.22347111       1.46268427
H       -0.85632565      -2.61586279       0.31755370      -1.47189607       2.47012906       0.03704132
H       -3.36606689      -1.58495560       0.04987622       1.49713108       1.43204608       0.25985934
H       -3.34692588       1.15426703      -0.18059885      -0.73212475      -0.30004372      -0.25401234
H       -1.37949712       2.42510113      -0.26113768       0.04809140      -0.10256686      -0.08857059
H        1.11881073       2.55265538      -0.39041271       0.18311191       0.16052358       0.34745111
H        3.33286510       1.44774825       0.01707993      -0.69717461      -1.01676464      -0.20522581
H        3.42812478      -0.90644628       0.37835823       0.44854647      -1.16656749       0.16158961
H        1.47146825      -2.27437656       0.40190391      -0.39829066      -2.85071568       0.59253889
18
Lattice="20.0 0.0 0.0 0.0 20.0 0.0 0.0 0.0 20.0" Properties=species:S:1:pos:R:3:REF_forces:R:3 REF_energy=-10478.498653127126 config_type=Default pbc="T T T"
C       -1.12930358      -1.49131814      -0.01966341      -1.29597281      -0.18101656       0.23524761
C       -2.38908222      -0.89713433      -0.15025337       1.46024331       1.02900118       0.12126161
C       -2.37960049       0.52705289      -0.11311259      -4.05034658      -0.30347183       0.58147122
C       -1.28055560       1.29611119       0.06064212      -1.08987272       1.11435744      -0.30066500
C       -0.07087459       0.73709805       0.24286141       3.15788778      -3.22718878       0.01158179
C        1.14693814       1.47858895       0.22218001      -1.01204939       0.31878557      -0.34603125
C        2.35369174       0.89465951      -0.06358988       1.09876112      -0.18453296       0.95454435
C        2.41978765      -0.53734115      -0.21188442       2.31864980       1.74489384      -1.09657728
C        1.31925852      -1.27884076      -0.05666632      -1.85867122      -0.14346462       0.72178979
C        0.02344551      -0.74133267       0.20841642       0.79349868       2.10200299      -0.67799449
H       -1.04845224      -2.56028361      -0.12524315       0.17815842      -0.93758731      -0.11384104
H       -3.27295575      -1.48140505      -0.39056338      -0.43487088      -0.14704663       0.11139253
H       -3.36960093       1.10467229      -0.03765778       0.86914845      -0.84197806      -0.73047827
H       -1.35200749       2.34149715      -0.16906620      -0.14266501       1.23593966       0.37801248
H        0.88918848       2.53877692       0.24909760       0.87749317       0.67397247       0.16698430
H        3.32030211       1.46279001      -0.00773889      -0.66178132      -0.12993229      -0.44394086
H        3.35390940      -0.94793406      -0.68781156      -0.50442729       0.00566111       0.76855728
H        1.31640543      -2.30968149      -0.24759639       0.29681647      -2.12839526      -0.34131476
18
Lattice="20.0 0.0 0.0 0.0 20.0 0.0 0.0 0.0 20.0" Properties=species:S:1:pos:R:3:REF_forces:R:3 REF_energy=-10478.363352868231 config_type=Default pbc="T T T"
C       -1.14630007      -1.46518730      -0.03065043       0.44598344       1.74364603       2.24428002
C       -2.37080296      -0.80159434       0.24196223       0.96442181      -1.42661796      -1.18157898
C       -2.51022123       0.58799127       0.15432600       0.38254153       0.50613193      -1.35103833
C       -1.36713640       1.25957391      -0.26580605       0.54805809       0.31351286       1.43976216
C       -0.05244401       0.71621653      -0.20628404       0.64782661      -1.36352355       0.24178875
C        1.17675290       1.45930481      -0.22301497      -3.93045506       1.74850634      -0.18861726
C        2.31518266       0.82773986      -0.02273916       5.37446093       0.57978319      -0.05735853
C        2.47573551      -0.55275332       0.12567713      -0.06060126       1.02441428       0.04708291
C        1.34395390      -1.31869188       0.15282388       2.06237175      -1.48693203       0.26975022
C        0.09874349      -0.73662804       0.01794092      -3.02766815       1.31100343      -1.41420972
H       -1.01111734      -2.49273505       0.24927936      -0.42787532      -1.30965581      -0.31921145
H       -3.19397156      -1.48451041       0.29273430      -1.21284102      -0.39861797       0.49218833
H       -3.44542376       1.19879529       0.16452449       0.19760203      -0.75893575       0.33508950
H       -1.45383429       2.32742799      -0.29813570       0.09985594       1.21268748      -0.48101622
H        1.09318426       2.55568025      -0.26469069       0.20134848       0.08620755      -0.22994419
H        3.32750967       1.39287622      -0.03144532      -1.50323174      -0.33720192       0.08105372
H        3.51673931      -0.83847746       0.23766384       0.22407272      -0.94619274       0.12094788
H        1.60238234      -2.37273108       0.31516414      -0.98587083      -0.49821535      -0.04896872
18
Lattice="20.0 0.0 0.0 0.0 20.0 0.0 0.0 0.0 20.0" Properties=species:S:1:pos:R:3:REF_forces:R:3 REF_energy=-10478.398224311342 config_type=Default pbc="T T T"
C       -1.23119309      -1.40293309      -0.04249292       1.01981489      -1.74448781       0.25146340
C       -2.41624866      -0.76086906       0.12021029      -0.44628951       0.01559899      -1.29011738
C       -2.46285223       0.64907209       0.03871745      -0.58952834       1.60824969       1.18412165
C       -1.31609769       1.40464697      -0.15748973       2.55715669      -1.22255141       0.66762909
C       -0.01267423       0.71858144      -0.08645497      -1.90249331      -2.28529215       0.19375267
C        1.17517495       1.43090968      -0.01947308       1.14538962       1.76178172      -0.03400762
C        2.41306523       0.79635319      -0.07361194       0.07697255      -0.13027219       0.30229971
C        2.44354839      -0.62026915      -0.00864428       1.65362384       0.80869374       0.24592550
C        1.32748467      -1.40166841       0.16597865      -0.58121581       0.26590935      -0.79107901
C        0.02925529      -0.83140873       0.03750410       1.06119417       4.22498680      -0.36420560
H       -1.22501381      -2.46333416      -0.25234637      -0.23915044      -0.94646466       0.21561122
H       -3.22637339      -1.47995776      -0.03724453      -0.95108843       0.56898173       0.47965091
H       -3.31870662       1.24884864       0.41756357      -0.38807937      -0.43614517      -0.76881275
H       -1.16433296       2.50960685      -0.19800331      -0.88991057      -0.38450683       0.03661673
H        1.12225160       2.55384363       0.12273132       0.06794186      -0.80778280      -0.40259191
H        3.38572761       1.34402243      -0.05929786      -0.56926069      -0.07676044      -0.06924623
H        3.46810143      -1.06062824       0.00674420      -0.50280760      -0.15221872       0.02988383
H        1.56065398      -2.44285609       0.30736881      -0.52226967      -1.06771984       0.11310576
18
Lattice="20.0 0.0 0.0 0.0 20.0 0.0 0.0 0.0 20.0" Properties=species:S:1:pos:R:3:REF_forces:R:3 REF_energy=-10478.324727007994 config_type=Default pbc="T T T"
C       -1.11220446      -1.50138994       0.00163977      -0.51189090       1.39573012      -0.35243411
C       -2.40601999      -0.96166191      -0.14211549      -0.78703570      -3.39837381       0.92802085
C       -2.56568872       0.40648857      -0.01926070       0.45598149       3.58131906      -0.04136257
C       -1.38666653       1.23084283       0.17620976      -0.67223785      -0.13378545      -1.24041672
C        0.00140028       0.76242464       0.07137471      -2.15704399       1.32757439       0.95942703
C        1.21168274       1.58901742       0.08781590      -1.33731090      -2.53187272      -0.05214614
C        2.41083306       0.90436095      -0.01302001      -2.02875370       0.91347633       0.38239585
C        2.46053611      -0.49727779      -0.11070667      -0.01107796       1.37689576      -0.33502039
C        1.33929917      -1.28112890      -0.10172570       0.59784503      -1.17921598       0.86119454
C        0.04029431      -0.65123358       0.06844118       1.42796352      -2.36339692      -1.07276846
H       -0.94049069      -2.56951937      -0.06233862       0.02023762      -0.56574332       0.06368216
H       -3.28178997      -1.76744320      -0.13276975       1.38701094       1.83235716      -0.37556947
H       -3.55548101       1.03645055      -0.17218121       1.57467576      -1.57599268       0.49960797
H       -1.63412060       2.30786676       0.18090654       0.43870697       0.06432463       0.17566203
H        1.10075942       2.63960624       0.22867410       0.05250362       1.26240407       0.03549495
H        3.30828251       1.45790367       0.07601414       1.48544336       0.77729425      -0.10567650
H        3.48898303      -0.71322601      -0.27179330       1.15310314      -1.78289706      -0.06271568
H        1.59181747      -2.39690902      -0.06817968      -1.08812046       0.99990221      -0.26737539
18
Lattice="20.0 0.0 0.0 0.0 20.0 0.0 0.0 0.0 20.0" Properties=species:S:1:pos:R:3:REF_forces:R:3 REF_energy=-10478.331207162772 config_type=Default pbc="T T T"
C       -1.08848896      -1.43925508      -0.11225319      -3.77618106       0.02513762       0.80472689
C       -2.42222659      -0.78360990       0.07469768       3.22228759      -2.06351995      -1.32426173
C       -2.56069580       0.59625546       0.05068790      -0.25638901       1.51243429       0.31537711
C       -1.36037667       1.34775255      -0.01546426       0.40720674       0.21281920       0.89637654
C       -0.04187291       0.75959238       0.01587458      -0.22245724       0.83334322      -0.18209190
C        1.24832639       1.43398943       0.14150896      -2.09809723       1.36726220      -0.97146745
C        2.41441931       0.74558119       0.07646216       2.19015707       1.81469605      -0.13483194
C        2.43561787      -0.64330853       0.02647775       2.93222361      -0.92196868      -0.79048041
C        1.32981160      -1.36534959      -0.15088627      -3.01084146       1.25108371       0.98058433
C        0.02721911      -0.63817897      -0.12019285       2.34451535      -2.15178886       0.10238205
H       -0.86927711      -2.56306670      -0.11575319      -0.95608866       1.18430641      -0.11919500
H       -3.28987943      -1.38407166      -0.02000629      -1.29089102      -1.06652649       0.30944872
H       -3.63760114       1.08908456       0.16874112       2.22429695      -0.81261046      -0.38126533
H       -1.39207487       2.43029947       0.10296411      -0.14186550       0.52360829      -0.15160787
H        1.23616752       2.54119540       0.04823332       0.09907612      -0.22214161       0.36890023
H        3.41765971       1.30217211      -0.01775865      -1.28786751      -0.55440655       0.38754428
H        3.42524964      -1.15515451      -0.05314121      -0.30207032       0.18723251       0.39408218
H        1.32752276      -2.42095585       0.04327312      -0.07701446      -1.11896095      -0.50422068
18
Lattice="20.0 0.0 0.0 0.0 20.0 0.0 0.0 0.0 20.0" Properties=species:S:1:pos:R:3:REF_forces:R:3 REF_energy=-10477.687658035211 config_type=Default pbc="T T T"
C       -1.26647371      -1.45764189      -0.17036820       0.96634890       1.97564798       0.75696623
C       -2.46931938      -0.68765417       0.13117279       1.80157715      -8.48211481      -0.66468693
C       -2.46742250       0.60864842       0.25458919      -0.84977020       5.45928857      -1.74323085
C       -1.28730974       1.26498400      -0.03778633      -1.05750227       0.68163929       0.86580273
C       -0.06397463       0.65451497      -0.12263923       2.88178617       1.89617590      -0.63059425
C        1.18571804       1.44239802      -0.06950540       0.87993423      -1.79424550      -0.06906029
C        2.45208935       0.77548919       0.13813905      -2.43730713       3.81403752       0.06915301
C        2.53669525      -0.59823385       0.15832511      -3.13168382       0.22883270      -0.44673971
C        1.34982218      -1.28725746      -0.04392124      -0.83526954      -1.59095434      -1.67173202
C        0.02378900      -0.73462385      -0.25508938      -0.55174726      -1.56017391       1.85382536
H       -1.18023546      -2.55244545      -0.09036178      -0.51225671      -0.03829005      -0.19908005
H       -3.30847279      -1.36869836       0.31493765      -0.60233526       0.29245023      -0.04132503
H       -3.39276898       1.22304270       0.09720304       0.24412737      -0.40018973       0.98383297
H       -1.33745902       2.31433478      -0.00692100       0.14157445       2.06112821      -0.11617139
H        1.19293213       2.52764742      -0.29005518      -0.23117035      -0.12709965       0.52429030
H        3.25363398       1.49348279       0.37192440       0.51365771      -0.38970261      -0.33679394
H        3.45472822      -1.06153052       0.14596037       2.52506649      -1.57681764       0.32431494
H        1.39383957      -2.34493977      -0.33851726       0.25497002      -0.44961220       0.54122888
18
Lattice="20.0 0.0 0.0 0.0 20.0 0.0 0.0 0.0 20.0" Properties=species:S:1:pos:R:3:REF_forces:R:3 REF_energy=-10478.4827998009 config_type=Default pbc="T T T"
C       -1.18731312      -1.39371245       0.03803980       1.09637293       1.84300091       1.31381128
C       -2.36041179      -0.74966915      -0.06547376      -4.02523600      -0.27786693      -0.43059298
C       -2.45074556       0.63823233      -0.35489705      -0.99688862      -0.69198849       0.18454401
C       -1.31507720       1.38518489      -0.32484759       0.93226466       1.50469918      -0.35144095
C       -0.05667659       0.75364362      -0.06035265      -0.01038736      -0.48169823       0.73936575
C        1.17781839       1.37309685       0.03480746       2.85445643       0.71313186      -1.30397501
C        2.43925075       0.69611272      -0.02842593      -1.66922962      -0.43323602       0.98010538
C        2.49244737      -0.70781099       0.21952485      -1.67574505       0.63951012      -0.68579666
C        1.25269747      -1.33659762       0.35991591       0.64767563       0.30969498       0.71050563
C        0.02879415      -0.63720234       0.18896260      -1.03786444      -2.04645822      -1.06724434
H       -1.25699650      -2.37699809       0.33574659       0.36438671      -3.03326806       0.48593700
H       -3.41655250      -1.29881798       0.06686150       2.24038048       0.75644250      -0.46397798
H       -3.48222901       0.95780924      -0.57396025       0.26804403       0.71746576       0.02367708
H       -1.28602628       2.48618302      -0.54619335      -0.18086147      -0.63666972       0.14500893
H        1.24285787       2.44383892      -0.11974081      -0.08813639       0.78087132       0.02505118
H        3.33802628       1.27325082      -0.15076358       0.74258163       0.54340732      -0.09080375
H        3.33963395      -1.37771105       0.14762255       0.93592226       0.14478668       0.25978318
H        1.27372389      -2.36110353       0.75459237      -0.39773572      -0.35182497      -0.47395777
18
Lattice="20.0 0.0 0.0 0.0 20.0 0.0 0.0 0.0 20.0" Properties=species:S:1:pos:R:3:REF_forces:R:3 REF_energy=-10478.1584759891 config_type=Default pbc="T T T"
C       -1.08479779      -1.55292830       0.01780914      -0.65897959       0.74302972       0.27141593
C       -2.30292678      -0.91822209       0.14828322      -1.43393558       2.34542146      -1.30759317
C       -2.47461710       0.53122143      -0.03513262       0.63225143       0.34956080      -0.11152607
C       -1.35688279       1.32945542      -0.28345520       1.08135579      -4.13173186       0.71940843
C       -0.05277826       0.66065634      -0.23000848      -1.23894924      -0.02134782       0.47848049
C        1.06947250       1.52245875      -0.15574093      -4.42572445       1.49015388      -0.13185002
C        2.21227571       0.98823855       0.10530075       4.72981694      -3.51073358       0.90971203
C        2.45093487      -0.46376839       0.20705626       1.75981256       3.31379722       0.55124585
C        1.43356426      -1.34117179       0.18571132      -0.92002071      -0.76683639      -0.83295868
C        0.12832592      -0.80697877      -0.00721515      -1.22867609       1.47589953      -0.76568716
H       -1.26136646      -2.61048209      -0.09860779       0.96853964      -1.06182389       0.23716256
H       -3.22638506      -1.51006208       0.09167272      -0.06721532      -0.19456504       0.33398054
H       -3.38544403       1.18422739      -0.07493521      -0.25273075      -1.33144318       0.33431236
H       -1.42040688       2.37789987      -0.40764619      -0.01325121       1.54183742      -0.29961209
H        0.88461270       2.59721526       0.01791747       0.09826746       0.04661780      -0.60171300
H        3.02148796       1.64472737       0.34138982       1.25046526       0.51843075       0.15172172
H        3.50047403      -0.65001629       0.48501844      -0.06588575      -0.74479309      -0.25069520
H        1.61817520      -2.42532619       0.21051434      -0.21514040      -0.06147374       0.31419549
18
Lattice="20.0 0.0 0.0 0.0 20.0 0.0 0.0 0.0 20.0" Properties=species:S:1:pos:R:3:REF_forces:R:3 REF_energy=-10478.089296980705 config_type=Default pbc="T T T"
C       -1.29076731      -1.30647318       0.56316267      -0.69936406       1.54553302      -2.63777820
C       -2.49205694      -0.69795744       0.04662911       1.73701315      -0.01208676       1.24970128
C       -2.43527935       0.63882679      -0.42088037       1.23824157       0.39057787      -0.13182133
C       -1.22734008       1.26991570      -0.64606074       0.98087065      -1.48444778      -0.18390298
C        0.01346158       0.60589059      -0.38727608      -2.05493540      -1.91681482       2.41436004
C        1.19306234       1.27080071      -0.36654324       3.51574302       2.38236317      -2.13893859
C        2.47632239       0.76806626      -0.05531799      -4.31958298      -0.34851987       0.08467980
C        2.44538438      -0.51875949       0.43916252       0.51394284      -2.63073451      -0.11754014
C        1.30939142      -1.37074001       0.55023268      -1.78191222       4.42082151      -0.08451689
C       -0.00360684      -0.69837471       0.29987099       0.68457971      -0.91747676      -0.37543340
H       -1.29291580      -2.35850077       0.73762408      -0.14729181      -1.24270094       0.80820313
H       -3.45321991      -1.20985820       0.03881239      -0.28747792      -0.33886080       0.29144302
H       -3.21467772       1.34165322      -0.61618445      -1.78821168      -0.08152449      -0.29865630
H       -1.12984991       2.20984192      -1.16324468      -0.30091882       1.01208800      -0.07867241
H        1.23263005       2.24057880      -0.90374541      -0.30078600       0.24280099       0.36876967
H        3.27744579       1.42408524      -0.17063043       2.07232943       0.94147039      -0.10295952
H        3.41076569      -0.98576466       0.58838757       0.69917349      -0.42759579       0.57793595
H        1.30610374      -2.19963453       1.21575469       0.23858721      -1.53489241       0.35512688
18
Lattice="20.0 0.0 0.0 0.0 20.0 0.0 0.0 0.0 20.0" Properties=species:S:1:pos:R:3:REF_forces:R:3 REF_energy=-10478.395271647649 config_type=Default pbc="T T T"
C       -1.11861693      -1.47821766      -0.15661367      -2.78336975       0.07267094       1.27978293
C       -2.42569136      -0.92496185       0.11631993       2.32344233       1.92361759      -1.08661924
C       -2.55136139       0.53253344       0.14511456       2.76150750      -0.77039778       0.05508840
C       -1.32687048       1.29391219       0.08540262      -1.14597907      -5.11119663      -0.72350004
C       -0.02592099       0.62794243      -0.09025104      -3.33576133       2.56755953      -0.03768234
C        1.07346008       1.46096041      -0.04349654       2.95658018       0.71113462       0.77259417
C        2.35513617       0.96127997       0.10344166      -1.14927471      -1.93716134      -0.43349323
C        2.48696847      -0.46694690       0.07549916       2.92415888       2.42065662       0.48463504
C        1.45117654      -1.26152251      -0.10241357      -3.72254579      -1.84654209      -0.69212677
C        0.07861094      -0.75159646      -0.22519607       1.44391701      -0.91193685       0.76022696
H       -1.16477886      -2.53986125       0.00751190       0.64975118      -1.16573055      -0.41764300
H       -3.26421066      -1.60907229       0.20545288      -0.44670197      -0.17179360       0.12267304
H       -3.48496465       1.08076695       0.23784624      -0.55120887      -0.01121772       0.10340848
H       -1.42039642       2.31175592      -0.00174913       0.07547761       3.16132365       0.07875227
H        1.03237797       2.51885468       0.12433982      -0.77333521       1.13646039      -0.12855870
H        3.24413954       1.50493824       0.32174316       0.82275243       1.14257061       0.06088136
H        3.49800051      -0.86067316       0.26439663      -0.03812493      -0.26439188      -0.09200924
H        1.59697900      -2.32786100      -0.06036221      -0.01128550      -0.94562550      -0.10641009
18
Lattice="20.0 0.0 0.0 0.0 20.0 0.0 0.0 0.0 20.0" Properties=species:S:1:pos:R:3:REF_forces:R:3 REF_energy=-10478.746599998749 config_type=Default pbc="T T T"
C       -1.07998979      -1.48786889      -0.03492594      -1.24894702      -1.48319257       0.30406920
C       -2.31087510      -0.88037843       0.09214817      -1.09599030      -0.08913680      -0.54309514
C       -2.46750716       0.51687730       0.08449704       1.98860361      -0.32807872      -0.35260442
C       -1.30592864       1.32652691      -0.04867456      -3.47395329       0.39509879       0.98849279
C       -0.05850308       0.73067511      -0.10717085      -0.62535795      -1.00626389       0.10773539
C        1.08487004       1.49670931       0.00342957       1.43748324       2.19572839      -0.53093321
C        2.30059310       0.88507979       0.06117747      -0.37135018      -1.49465804       0.32267401
C        2.44206153      -0.56389992       0.03150009       3.09648218       3.36470213       0.13660379
C        1.35163767      -1.31112250      -0.07430072      -1.77606368      -2.60829963       0.61338283
C        0.06084222      -0.72009398      -0.08936285       0.97425906       1.17882857      -0.38399837