16
Lattice="20.0 0.0 0.0 0.0 20.0 0.0 0.0 0.0 20.0" Properties=species:S:1:pos:R:3:REF_forces:R:3 REF_energy=-13472.165693467901 config_type=Default pbc="T T T"
C        1.57946703      -0.11749719       0.10724740       2.90883932      -0.80810887       0.64596858
C        0.18007052      -0.29735694      -0.16094370       1.48524456       1.90858934       0.46443060
C       -0.54578422       0.92058554      -0.17392978       0.01878196       1.12892428      -0.51247675
O       -0.02152043       2.17806702      -0.37806527      -3.33646679      -1.03385471      -0.48476586
C       -1.92185845       0.76225707      -0.09064864      -0.58801314       1.82049990      -1.12026773
C       -2.58185649      -0.43338584      -0.02864111      -0.42087133      -0.14452433      -0.01709886
C       -1.86150588      -1.58991245       0.07404438       1.94449752      -1.01890755       0.51596018
C       -0.45660114      -1.48595889      -0.01011521      -0.84364208      -4.18399679       0.34572878
O        2.11068984       0.98968108       0.34610509      -0.15419214      -1.67976404      -0.41337939
O        2.39128061      -1.32933102       0.21554178      -3.57984077       1.75072922      -0.76160163
H        0.82811864       2.25242500       0.01599685       2.41330434      -0.43611966       0.76927174
H       -2.56704122       1.60800320      -0.28929410      -0.09117733       0.92327670       0.18377957
H       -3.65009445      -0.40582665      -0.13539303      -1.03375798      -0.17016054       0.30405891
H       -2.21079022      -2.55078618       0.43297319      -0.77189036      -0.54403786      -0.42360734
H        0.10184300      -2.50706920       0.06943040      -0.41966044       1.87441198      -0.02694069
H        3.19762296      -0.87457896       0.36480359       2.46884459       0.61304293       0.53093994
16
Lattice="20.0 0.0 0.0 0.0 20.0 0.0 0.0 0.0 20.0" Properties=species:S:1:pos:R:3:REF_forces:R:3 REF_energy=-13472.491621827427 config_type=Default pbc="T T T"
C        1.62085065      -0.11348553       0.13485798       2.61260057      -0.96227118       0.29097771
C        0.21003191      -0.23751147       0.30179728      -0.84483492       1.11890346      -0.67971605
C       -0.58400160       0.91372856      -0.02112831      -1.62945779      -0.45285420      -0.72724202
O       -0.20126686       2.17538155      -0.07988434       2.84626340       0.86296269       0.41960866
C       -1.97333968       0.76826005      -0.41175948       2.03166203       1.51581843       1.16657587
C       -2.56038255      -0.45889958      -0.31599123      -2.39056283      -0.13181058      -0.73518359
C       -1.78803561      -1.61368089      -0.00888826      -0.77269038       0.60028321       0.47460383
C       -0.44949351      -1.46476157       0.34386624      -1.84301824      -0.28398734      -0.91371996
O        2.27718254       0.91413002      -0.01346269      -0.48339222       1.65623506       0.15172172
O        2.33860747      -1.28189913       0.09627088       0.83414936      -0.01253392       0.67031877
H        0.82491040       2.23073109       0.08188514      -1.44334499      -0.47002717      -0.33567181
H       -2.42517454       1.77602609      -0.62125925      -0.22402999      -0.97133237      -0.02295450
H       -3.69991145      -0.37738395      -0.52839735       1.52065791      -1.02547363       0.23658113
H       -2.23756563      -2.61676729       0.01972029      -0.09657079       0.06133233       0.00627735
H       -0.03007511      -2.41636889       0.51048614       1.67146288      -1.18681287       0.49281994
H        3.31660077      -1.00118562       0.22049348      -1.78889395      -0.31843189      -0.49499710
16
Lattice="20.0 0.0 0.0 0.0 20.0 0.0 0.0 0.0 20.0" Properties=species:S:1:pos:R:3:REF_forces:R:3 REF_energy=-13472.20320115696 config_type=Default pbc="T T T"
C        1.73846694      -0.13113368       0.11862380      -4.58154502       0.95568921       0.58966317
C        0.19560363      -0.22056234       0.04491708       2.02047141      -2.41371196      -0.52336079
C       -0.54938519       0.93358543      -0.11566250      -0.85423281       0.19300284      -0.61834881
O       -0.08404805       2.15492222      -0.32191083       1.42610287       2.11913353      -0.01129666
C       -1.96892510       0.78214485      -0.18173171       0.11792354       0.14732148       0.91237451
C       -2.59766712      -0.46047330      -0.08097482      -0.81097544       1.63982803       0.54247509
C       -1.83497150      -1.61473154       0.03129773      -0.22218188       1.41084018      -0.27953059
C       -0.48192169      -1.49301392       0.02585384       2.97545974      -0.96462122      -0.77873700
O        2.18281003       1.01777204       0.24192095       1.96013338      -1.42336017      -0.35631838
O        2.29655522      -1.35814181       0.20833727      -0.58495959       1.03194031      -0.28872948
H        0.93969897       2.32775096      -0.31072102      -1.98965545      -1.56368424       0.38126559
H       -2.53003770       1.70151475      -0.00744427      -0.34366578       0.34611419      -0.58282434
H       -3.71028031      -0.43913472       0.01749541       0.47756682      -0.30047942      -0.17606750
H       -2.31904506      -2.52310241       0.14159068      -1.01954102      -2.47590834      -0.01870832
H        0.14514557      -2.44152122      -0.21911282      -0.69183988       1.37266748       1.03045694
H        3.22346766      -1.16642659       0.22025581       2.12093912      -0.07477190       0.17768662
16
Lattice="20.0 0.0 0.0 0.0 20.0 0.0 0.0 0.0 20.0" Properties=species:S:1:pos:R:3:REF_forces:R:3 REF_energy=-13472.50271979528 config_type=Default pbc="T T T"
C        1.63902301      -0.16237216       0.06234992       1.04938407      -2.71685289       1.36033050
C        0.21530932      -0.18695376       0.14313706      -1.57409685      -0.55690171      -1.39729859
C       -0.58749610       1.00180375      -0.05895686      -0.80915649      -0.33409253       2.18255401
O       -0.08565048       2.25650932       0.03115375      -0.13988267      -0.45738726      -0.57824557
C       -2.02493225       0.84273966      -0.01151775       2.09187521      -1.58724850      -1.43881908
C       -2.61955095      -0.43159033      -0.22402667       1.84672048       1.22478554       0.98736325
C       -1.80618323      -1.59712875      -0.11332331       0.55797082       2.38644963      -0.73821276
C       -0.40241697      -1.44977437      -0.01609084      -1.62406372      -0.61965488       0.70024276
O        2.28986438       0.80675810      -0.21037045       1.50774686       2.05191405      -0.56548549
O        2.25061738      -1.41097301       0.40523442       0.62548635       1.72539197      -0.74566027
H        0.88798204       2.19713070      -0.12140196       0.17460865      -0.20410743       0.09007063
H       -2.58784590       1.71392885      -0.22250342      -0.93977907       1.40340867       0.06518970
H       -3.66156092      -0.30343385      -0.48412135      -0.83705692      -0.93876266       0.01127994
H       -2.19619673      -2.52972716      -0.39701663      -0.79785001      -1.85468359      -0.16126653
H        0.15747292      -2.40381226      -0.03280316       0.30129688       0.49626697       0.06894531
H        3.24643673      -1.27178961       0.27347770      -1.43320359      -0.01852531       0.15901214
16
Lattice="20.0 0.0 0.0 0.0 20.0 0.0 0.0 0.0 20.0" Properties=species:S:1:pos:R:3:REF_forces:R:3 REF_energy=-13472.620635477575 config_type=Default pbc="T T T"
C        1.68549032      -0.16527731       0.12962427       2.42120976       2.68533626      -0.46666514
C        0.25288269      -0.22937181      -0.00215965      -1.67696926      -1.59259825      -0.04279179
C       -0.59901978       0.86849672      -0.15711161       0.42310639       3.80698976       0.29154643
O       -0.10859405       2.15958091      -0.15973563       1.26780288      -0.93058954      -0.22430890
C       -1.99977744       0.84098560      -0.27332120      -0.36033619      -1.14434827      -0.77417920
C       -2.65518207      -0.44284320      -0.17872385       0.04295275       4.30978816      -0.17986995
C       -1.89825902      -1.50516822       0.16664907       2.80808900      -2.11593667      -0.23665112
C       -0.46471885      -1.44423203       0.08540887      -0.47309295      -0.94382537       0.47684404
O        2.35258354       0.93819255       0.09680035      -1.68799574      -2.71580959       0.16507984
O        2.28120687      -1.37297047       0.25081567       0.34119346       0.20184388       0.15420026
H        0.91410817       2.09096554      -0.14751648      -1.02679302      -0.12648208       0.12447142
H       -2.41139612       1.85103582      -0.57055240      -0.18069332      -1.08299152       0.41507513
H       -3.72094433      -0.47354808      -0.35241346      -0.76534232      -0.24943418       0.15012003
H       -2.35932054      -2.45809247       0.40338216      -0.18171210      -0.61351570      -0.17902421
H        0.14751356      -2.37436762       0.06620981      -0.44271814       0.21245688       0.43562735
H        3.25969201      -1.26293952       0.35541719      -0.50870124       0.29911628      -0.10947413
16
Lattice="20.0 0.0 0.0 0.0 20.0 0.0 0.0 0.0 20.0" Properties=species:S:1:pos:R:3:REF_forces:R:3 REF_energy=-13472.59036850661 config_type=Default pbc="T T T"
C        1.68615678      -0.12891848       0.00635068      -4.20676349      -3.42825969      -0.62037849
C        0.15858050      -0.22693460       0.01770425       1.88001554      -0.74854906       0.50761927
C       -0.56222381       0.98708552       0.02036364      -1.73792044       0.40247627       0.16891237
O        0.03394185       2.19527093       0.13788551      -0.11453688      -0.04500845      -0.51699639
C       -2.00841448       0.93412432      -0.04671448      -0.08585659      -2.11070289      -0.82261992
C       -2.63022846      -0.42361485      -0.04672556       0.06698063       3.19120625       0.18902318
C       -1.85175707      -1.56739613       0.04696444       1.12796346      -1.37106079       0.16651564
C       -0.44511546      -1.52461851       0.05920605      -0.44584342       0.95606552       0.23655805
O        2.34788495       0.85049289      -0.05117846       2.25251455       3.03063042       0.08917465
O        2.13363543      -1.39401829      -0.11342987      -0.14185923      -0.23869360       0.29774084
H        1.01094396       2.10697560      -0.03125868      -0.18062509      -0.31948239       0.25002502
H       -2.58782855       1.87227303      -0.32624272       0.47376108      -0.94546825       0.73422580
H       -3.74700436      -0.48247674      -0.04716154       0.54975409       0.01120615      -0.14730817
H       -2.18558262      -2.61820742       0.13688428      -0.88812674       0.40751198      -0.09561336
H        0.10802594      -2.50084788       0.19654202      -0.17840725       1.17347337      -0.32796899
H        3.08077266      -1.35997661      -0.18509397       1.62894974       0.03465523      -0.10890951
16
Lattice="20.0 0.0 0.0 0.0 20.0 0.0 0.0 0.0 20.0" Properties=species:S:1:pos:R:3:REF_forces:R:3 REF_energy=-13472.69971850906 config_type=Default pbc="T T T"
C        1.66516602      -0.17016885       0.09930541      -0.58773854       1.27119190       0.33655688
C        0.19610937      -0.27987517      -0.04711974       1.26033506       1.88736571       0.46533177
C       -0.54948094       0.92687405      -0.09664603      -0.69105148      -0.09664622      -0.58946262
O       -0.02198302       2.12665569      -0.33301157      -2.11843178       0.68048666       0.14015901
C       -1.96491940       0.85417457       0.00316216      -0.55368963       2.82358159       1.02488253
C       -2.63922515      -0.33680222       0.02536742       0.57635617      -2.10686346      -0.21395085
C       -1.84045546      -1.54089682      -0.04376368      -1.58609948       0.46296383      -0.57279766
C       -0.45785497      -1.48349510      -0.01659711      -0.93551346      -0.95028306       0.16822075
O        2.23281727       0.93421897       0.22126167       0.18719528      -1.18338950      -0.52985735
O        2.25948521      -1.37072515       0.18248613       1.26436907      -0.38006345      -0.76227155
H        0.91325433       2.08970557      -0.18963121       2.32450219      -0.39280090       0.32476781
H       -2.48420095       1.86390580       0.24853841       0.60694679      -1.38594836      -0.80361427
H       -3.74610993      -0.46601599       0.07833216       0.49407943       0.41011537      -0.00384946
H       -2.40536446      -2.45217335      -0.28865258       0.25608665      -0.38185309       0.54832348
H        0.18261978      -2.34028206       0.10851885       0.16380138      -0.94758767      -0.25022402
H        3.19282988      -1.33470511      -0.17034954      -0.66114770       0.28973072       0.71778561
16
Lattice="20.0 0.0 0.0 0.0 20.0 0.0 0.0 0.0 20.0" Properties=species:S:1:pos:R:3:REF_forces:R:3 REF_energy=-13472.104284093262 config_type=Default pbc="T T T"
C        1.68110054      -0.16581295       0.17568803      -0.22565400       4.71446411       1.72596672
C        0.20941196      -0.28872693       0.15974762      -1.12245888       2.71587176       0.00349187
C       -0.63248673       0.92297063      -0.10574344       0.78955584       0.86815529      -1.55144723
O       -0.16403705       2.24024238      -0.27153574      -0.55129742      -1.99507760       0.73737284
C       -1.98679362       0.80916812      -0.53854597       1.33256891      -1.22354113       1.76804148
C       -2.54441530      -0.46721484      -0.38584553      -0.23814961      -0.88936956      -0.16486114
C       -1.79950796      -1.62406447       0.08484651      -0.75707103      -0.80360059      -0.53765726
C       -0.43046221      -1.51079376       0.37485882      -0.23102513       0.78780338      -1.41453126
O        2.23305952       0.96048242       0.39224361      -0.73999305      -2.17637112      -0.87004304
O        2.32739002      -1.28833027       0.09696676       0.37848685      -2.36240360      -0.61502175
H        0.53723211       2.30694483       0.39381712       1.11083544       0.13972403       0.00096735
H       -2.55940268       1.72949226      -0.75116202       0.12073515      -0.28140924      -0.20888727
H       -3.59996539      -0.49876365      -0.72806551       0.13928473      -0.69860060       0.32211988
H       -2.18683817      -2.71233293       0.06393287      -0.09113625       1.68998747       0.13740633
H        0.31954692      -2.29368340       0.45680427      -0.38838024      -1.00221733       0.43790905
H        3.27286439      -1.19227720      -0.08986626       0.47369860       0.51658475       0.22917343
16
Lattice="20.0 0.0 0.0 0.0 20.0 0.0 0.0 0.0 20.0" Properties=species:S:1:pos:R:3:REF_forces:R:3 REF_energy=-13472.555142808944 config_type=Default pbc="T T T"
C        1.65207714      -0.14663646       0.11154950       0.32018189       1.11925107      -0.62507610
C        0.20722061      -0.24615549      -0.16796823      -0.04849450      -1.73226746       0.26062408
C       -0.59387455       0.88863701      -0.21263067      -0.38329126       1.64513818      -0.02450169
O       -0.06964076       2.09671625      -0.43490440      -1.24708380       0.70634440       0.30704180
C       -1.98550270       0.85869143       0.06571585       1.52139818      -3.88084455      -0.65072707
C       -2.59819065      -0.38382345       0.18543968       1.65360035      -1.24738801      -0.77991991
C       -1.82744334      -1.59977543      -0.03667627      -2.76505321       0.19943332       0.61625629
C       -0.49982935      -1.48783855      -0.16960475       3.69583820      -0.49799105       0.11636232
O        2.25506242       0.96066847       0.06004632      -0.57941197      -1.53494363       0.43945613
O        2.31258126      -1.29881145       0.46831614      -1.84263417       0.73537344      -0.61428611
H        0.83041330       2.02554927      -0.10145110       1.89954739       0.07570901      -0.13890585
H       -2.42591191       1.73438860       0.33481995      -1.73135189       3.10342683       0.48364589
H       -3.62524654      -0.52336272       0.41883604      -1.43886922       0.18156457       0.40631312
H       -2.26640288      -2.63099829       0.05289610      -0.03289500       0.85061959      -0.18947621
H        0.19012357      -2.36581008      -0.20817706      -0.59425721       0.09777108       0.04899957
H        3.16460548      -0.93218651       0.69135066       1.57277618       0.17880320       0.34419373
16
Lattice="20.0 0.0 0.0 0.0 20.0 0.0 0.0 0.0 20.0" Properties=species:S:1:pos:R:3:REF_forces:R:3 REF_energy=-13472.28402336419 config_type=Default pbc="T T T"
C        1.65562048      -0.03627712       0.23271705       0.92982242      -4.58695837      -0.50182672
C        0.21996509      -0.24197648      -0.02885981      -2.80556299      -1.98118120       0.05699930
C       -0.63463079       0.93125125      -0.17283789       2.58466194       0.31567130       0.67297066
O       -0.03343178       2.12477684      -0.14294664       1.21462892      -0.02612128      -0.71121196
C       -2.00932084       0.85441442      -0.26997325      -0.96312135      -3.59939977      -0.56414168
C       -2.59877587      -0.46477769      -0.23767573      -0.77983131       3.02405698       0.04036709
C       -1.92119077      -1.64991720      -0.00643498       0.70685770       0.37288554      -1.12371029
C       -0.54179899      -1.56119034      -0.06081088       2.48151165       2.22966284       1.53173412
O        2.29554965       0.99077743       0.15732542       0.11132028       1.54640041       0.01919910
O        2.38989156      -1.29708385       0.44033673      -2.03126804       1.90039210      -0.19336567
H        0.98542109       1.89839380      -0.23397623      -1.17155672       0.74311509       0.52546668
H       -2.63647249       1.61626037      -0.68685732      -0.32955191       1.19840402       0.17667057
H       -3.67542749      -0.38045564      -0.41823155      -0.38460355      -0.64698961       0.06776045
H       -2.40218157      -2.62389393      -0.06399582      -0.27888483      -0.32262310       0.24213698
H        0.01368241      -2.46488940       0.14783091       0.70437962      -0.53312209      -0.22186023
H        3.33753389      -1.07406517       0.51871276       0.01119818       0.36580719      -0.01718839
16
Lattice="20.0 0.0 0.0 0.0 20.0 0.0 0.0 0.0 20.0" Properties=species:S:1:pos:R:3:REF_forces:R:3 REF_energy=-13472.439886552504 config_type=Default pbc="T T T"
C        1.65057266      -0.17137289       0.00900109       0.61151523       1.21443665       0.50028998
C        0.16915072      -0.28062883       0.09273407       1.38206039       0.22368839      -1.61948474
C       -0.55168614       0.93844738       0.01130549      -0.75294616      -1.37300769      -0.26683546
O        0.07478855       2.08880404      -0.09192217      -0.85741425       1.13883460       0.11643426
C       -1.97734787       0.84409583       0.03229425       1.09856788       1.53457313       0.86400630
C       -2.71087142      -0.33892989       0.18655898       4.03621600       0.47284258      -1.46686123
C       -1.94408842      -1.52241319      -0.09684390      -0.32636076      -0.72765185       1.35521725
C       -0.50021937      -1.48227582      -0.18700103      -1.75713029      -1.27411781       1.37770622
O        2.29378663       0.92769194      -0.07847976      -1.04620346      -1.98846832      -0.02220672
O        2.29003582      -1.34775089       0.11138030       1.87869616       0.35298202      -0.59859837
H        1.05206808       1.88515718      -0.15280975       0.58428509      -0.08178309       0.10156829
H       -2.31004386       1.88008892       0.15692343      -1.12938188       0.07348146      -0.06070210
H       -3.69868868      -0.17376865       0.49953278      -2.08512262      -0.63780440       0.26041279
H       -2.50193356      -2.48909949       0.10551283       0.79320984       0.50699901      -0.71508338
H        0.09717943      -2.44215238      -0.18291828      -0.61502823       0.75586920      -0.24057143
H        3.28860013      -1.16393988      -0.06144341      -1.81496293      -0.19087391       0.41470829
16
Lattice="20.0 0.0 0.0 0.0 20.0 0.0 0.0 0.0 20.0" Properties=species:S:1:pos:R:3:REF_forces:R:3 REF_energy=-13472.554299045276 config_type=Default pbc="T T T"
C        1.65186331      -0.15216080       0.03205558       0.71385429      -0.57065737       0.57466824
C        0.20528201      -0.21670239       0.10937366      -0.73345627      -3.06355231      -0.27987224
C       -0.56526552       0.94172349       0.13422636       1.53194685       1.09280655      -1.40782813
O        0.01468731       2.14079638       0.08483782       0.74549942       0.44770521       0.55187392
C       -1.88755431       0.82723918      -0.17750179      -4.82452434      -0.65499644      -0.49550233
C       -2.69038691      -0.39390564      -0.26961252       2.68364031       0.97911962       1.27803890
C       -1.92919590      -1.59370808      -0.00995870       1.07458515       2.31444054      -0.82094341
C       -0.49661817      -1.47186420       0.01058628      -1.55492300       1.34498842       0.96058973
O        2.22778962       0.94598730      -0.00495885       0.76799760      -0.40795328      -0.05121884
O        2.30903440      -1.37122575       0.07087958       0.36609367       1.09440182      -0.23899473
H        1.03590130       1.93690716       0.09194138      -0.89733962       0.24068806      -0.02890923
H       -2.42655445       1.77726263      -0.36306272       0.14948008      -0.06106576       0.09091647
H       -3.80594880      -0.33612120      -0.38654269       0.82367335      -0.15230274      -0.05637637
H       -2.44644900      -2.51557652       0.13277976      -0.28936475      -1.28347925      -0.08787593
H        0.14459898      -2.30034988       0.15111406       0.65464785      -1.63872399      -0.02344193
H        3.30710003      -1.25718678       0.01684405      -1.21181052       0.31858086       0.03487588
16
Lattice="20.0 0.0 0.0 0.0 20.0 0.0 0.0 0.0 20.0" Properties=species:S:1:pos:R:3:REF_forces:R:3 REF_energy=-13472.791639814232 config_type=Default pbc="T T T"
C        1.61567039      -0.11128734       0.23647272       0.23081410       0.12573517      -0.10749911
C        0.14352591      -0.28950603       0.21081256       1.87278869      -0.33174028      -0.49244410
C       -0.51170187       0.87313546      -0.13644371      -3.67585697       2.14684714      -0.98902752
O        0.07436025       2.05378898      -0.30174173      -1.07545228       0.21730892       0.17956564
C       -1.97937450       0.82311238      -0.35457445       1.53755808       0.42710538       0.73016922
C       -2.61599134      -0.39210119      -0.18864121       0.39177590      -0.78281739       0.37129989
C       -1.90783753      -1.64178937       0.02673970       0.58087385       1.48668860       0.03163593
C       -0.51826705      -1.52793495       0.16022846       0.11192495      -1.07719440       0.49201771
O        2.15861747       1.02198679       0.34607627       0.04512821      -1.58726511       0.03507741
O        2.36860997      -1.22071429      -0.00053020       0.06008385       0.95805488       0.08288784
H        0.97758796       1.90450805       0.08680857       0.95146674       0.27640289      -0.02407370
H       -2.58733003       1.77605405      -0.43770195       0.81279121      -0.79182242      -0.12603388
H       -3.69509336      -0.30693827      -0.11981452      -0.71120986      -0.50964288      -0.23294529
H       -2.39659478      -2.60860189       0.18076787      -0.23404150      -0.04941424      -0.21082902
H        0.18809199      -2.37641682       0.30159135      -0.67623283      -0.11354223       0.00841620
H        3.26710089      -0.83151901      -0.16543147      -0.22241209      -0.39470403       0.25178283
16
Lattice="20.0 0.0 0.0 0.0 20.0 0.0 0.0 0.0 20.0" Properties=species:S:1:pos:R:3:REF_forces:R:3 REF_energy=-13472.616239130766 config_type=Default pbc="T T T"
C        1.59701181      -0.09397558       0.05739856      -1.87785895      -5.91711580       0.74351397
C        0.11238330      -0.27616354      -0.02623258       2.43902401       0.95013805       0.15199251
C       -0.55291012       0.98106325      -0.12938756      -1.26681521       0.88720618       0.88111015
O        0.09971716       2.17768217       0.01087375      -1.74783333      -0.98218335      -0.67205972
C       -1.97761803       0.90355217      -0.15726452       0.73496793      -0.84757530       0.44912610
C       -2.51644214      -0.42368940      -0.08545062      -3.14427431       2.80283382      -0.93015914
C       -1.86588684      -1.62521280      -0.08199354       2.89789311      -0.09312597       0.73715038
C       -0.44742581      -1.55708395       0.06230562      -1.92223295       1.28837546      -0.98146889
O        2.20170747       0.91312473      -0.03558812       2.77364419       3.40712744      -0.31351610
O        2.20089870      -1.33948131       0.28832335       0.34658660       0.81762668      -0.09231263
H        1.05608760       1.93279194      -0.04712513       0.60548553       0.18715142       0.03214074
H       -2.60927210       1.82993311      -0.11628977       0.35074670      -0.70626609      -0.13262578
H       -3.65167573      -0.41461175      -0.14606594       0.88954265      -0.27239845       0.15625653
H       -2.36166946      -2.56867664      -0.10060737      -0.73964579      -0.98419837       0.04258935
H        0.24175858      -2.37163819       0.13032142       0.35977888      -1.00349589       0.11402945
H        3.18746413      -1.28773578       0.39312065      -0.69900910       0.46590019      -0.18576703
16
Lattice="20.0 0.0 0.0 0.0 20.0 0.0 0.0 0.0 20.0" Properties=species:S:1:pos:R:3:REF_forces:R:3 REF_energy=-13472.20977134792 config_type=Default pbc="T T T"
C        1.59445983      -0.15866782      -0.04167565       0.04108037      -3.95359026       0.51020451
C        0.16752629      -0.19407909      -0.21783960      -1.10043208       0.00043539      -0.22334545
C       -0.58419268       1.04048580      -0.09088432      -1.27847727      -1.99516605       1.03176620
O        0.05311905       2.17575300       0.06455591      -0.05747161       1.87412134       0.25753943
C       -2.01953315       0.89900198       0.17563086       0.24104231       0.49376781       0.07469569
C       -2.59627977      -0.40547835       0.16129229       1.19941529       3.47028113       0.58953168
C       -1.83726883      -1.50834664      -0.07126976       0.80065735      -2.09758913      -0.66909539
C       -0.44813267      -1.46439886      -0.32013619      -0.46022083       0.53833017       1.04490922
O        2.33735591       0.75967875      -0.20329173       1.64178520       2.79562568      -0.09996341
O        2.17654415      -1.43166690       0.36143090      -1.85549190       1.79216475      -0.75576496
H        1.03679626       2.08123136       0.16610758      -0.22919816      -0.50452386      -0.52166273
H       -2.70453533       1.74336913       0.56953165       1.34942491      -0.77383560      -0.81561361
H       -3.56392095      -0.47854702       0.61685624      -1.17507501      -0.26976179      -0.06897673
H       -2.44793957      -2.39540219       0.06361503       0.39855405      -1.11740975      -0.26350105
H        0.29305853      -2.29443661      -0.31920582      -0.86414575      -0.08466967      -0.20608754
H        3.08660544      -1.18167579       0.19326924       1.34855320      -0.16818023       0.11536411
16
Lattice="20.0 0.0 0.0 0.0 20.0 0.0 0.0 0.0 20.0" Properties=species:S:1:pos:R:3:REF_forces:R:3 REF_energy=-13472.515809333305 config_type=Default pbc="T T T"
C        1.64309246      -0.14942715       0.15877337      -1.33799548      -0.18236541      -0.57800172
C        0.21021188      -0.27331793      -0.14500318      -0.92518451      -2.04755896       1.46731791
C       -0.60744196       0.90106550      -0.11034502       0.19306028       1.86988982      -0.24499949
O       -0.02162382       2.10521629      -0.32553609       0.28376149      -0.75981466      -0.08917845
C       -2.03594123       0.90094641       0.12200516       3.02852607      -2.04144719      -0.94918638
C       -2.56156605      -0.36724711      -0.01630873      -3.48158087      -0.20795925       0.30259765
C       -1.83202493      -1.56622744      -0.20419748      -1.21719297      -1.16897070       0.11441887
C       -0.47125451      -1.56825833      -0.09692346       1.04215546       2.14702702      -0.47199843
O        2.22514046       0.93086316       0.06342129       0.80442294       0.60425490      -0.30022303
O        2.31745491      -1.27140931       0.50588567       1.23893078       1.01012116      -0.96737045
H        0.95147267       1.87329707      -0.53374233      -0.49265622       0.43251292       0.68244878
H       -2.57562451       1.81205193       0.22816838      -0.64906892       0.97502267       0.14457128
H       -3.72531439      -0.39368474       0.07372835       1.66023796      -0.36179164      -0.28078714
H       -2.29585485      -2.58433950      -0.37562461      -0.16325158       1.07853189       0.37342897
H        0.02638375      -2.52629445      -0.03364981       0.76004030      -0.32105653      -0.10372786
H        3.23371967      -0.90391340       0.25162623      -0.74420477      -1.02639594       0.90068946
16
Lattice="20.0 0.0 0.0 0.0 20.0 0.0 0.0 0.0 20.0" Properties=species:S:1:pos:R:3:REF_forces:R:3 REF_energy=-13472.691264560463 config_type=Default pbc="T T T"
C        1.59341763      -0.18949111       0.10173132      -0.38050398       0.02368490       0.04281123
C        0.14330849      -0.28469007      -0.01915429       1.46255165      -0.21818016       0.45627110
C       -0.53374938       0.95032137      -0.10478362       2.17532371       0.44261216      -0.03050413