15
Lattice="20.0 0.0 0.0 0.0 20.0 0.0 0.0 0.0 20.0" Properties=species:S:1:pos:R:3:REF_forces:R:3 REF_energy=-7373.640880025412 config_type=Default pbc="T T T"
C        2.41949718      -0.19837957       0.16752474       0.45846106      -2.77615199       0.05804399
C        0.93632872      -0.06037110       0.12474797      -0.67415388      -1.41145457      -0.81619617
C        0.39137612       1.09528987      -0.46626767       0.57294791      -1.15456142       0.54604142
C       -0.97564418       1.14687468      -0.61786528      -1.74225795       2.05045669      -0.07854170
C       -1.84920479       0.25234246       0.00513362      -0.94068796      -0.99829486      -1.32874404
C       -1.29498103      -0.99561792       0.38725449      -1.74303637       0.60869576      -0.06503811
C        0.04299315      -1.20914832       0.39109450       4.00340610       2.10694373       1.19306975
H        2.91183783      -0.23200677      -0.82304120      -0.18943430       0.17326145      -0.26011552
H        2.92858143       0.52296769       0.73506495       0.79571353       2.03281924       1.04596136
H        2.80637230      -1.14567035       0.67521589      -0.72723240       0.42275008      -0.42924392
H        1.01029389       1.93546095      -0.78272461       0.32117207       0.12085043      -0.24591964
H       -1.37658391       2.02270182      -1.19328844      -0.04728161      -0.34526922       0.53162545
H       -2.98422659       0.37814610      -0.06178969       1.30302915      -0.08845546       0.08418871
H       -1.94266968      -1.82768471       0.60006523      -0.73822186      -0.58790222       0.55423522
H        0.57441274      -2.02200383       0.95103478      -0.65242349      -0.15368764      -0.78936681
15
Lattice="20.0 0.0 0.0 0.0 20.0 0.0 0.0 0.0 20.0" Properties=species:S:1:pos:R:3:REF_forces:R:3 REF_energy=-7373.201911015075 config_type=Default pbc="T T T"
C        2.45058389       0.06245688       0.14371107      -0.79062737      -2.52169711      -0.00165929
C        0.88236957      -0.01552945       0.01308536       3.56875418      -3.43421262       1.08988305
C        0.12685055      -1.21019958       0.39327202       4.49752373       2.33449083       0.47215234
C       -1.20492971      -1.15601412       0.31459907      -0.99078436       0.26205598      -0.48891603
C       -1.82224107       0.02884301      -0.05001510      -1.21504677       0.30581585       0.16472651
C       -1.09849236       1.12718170      -0.39638875       1.19803116       1.33867482      -0.88667530
C        0.33069897       1.10030949      -0.45762318      -3.29330953       1.80025262      -0.32982533
H        3.08371897      -0.28704748      -0.72885914      -0.74662737      -0.71056636       0.43077542
H        2.64178440       1.07530286       0.02659664       0.76076046       2.81556767       0.50896236
H        2.88510250      -0.34801191       1.10970980      -0.38936343       0.31677749      -0.74465379
H        0.79638012      -1.85566662       0.99033076      -0.63008713      -0.96473070      -0.53299251
H       -1.77412269      -2.02187064       0.39105288      -1.51807853      -2.02567219       0.88717163
H       -2.90033776       0.16952050       0.05733525      -0.39753908      -0.34829479      -0.26044678
H       -1.64256131       2.02488237      -0.67043436      -0.18862003       0.61671241      -0.09111285
H        0.90389410       1.99422477      -0.70601205       0.13501402       0.21482610      -0.21738944
15
Lattice="20.0 0.0 0.0 0.0 20.0 0.0 0.0 0.0 20.0" Properties=species:S:1:pos:R:3:REF_forces:R:3 REF_energy=-7373.169996598159 config_type=Default pbc="T T T"
C        2.54050619      -0.08258519       0.18759356      -1.43542466      -3.15998946       1.21219454
C        0.95044264      -0.17647436      -0.00327402       1.39214549       2.83979903       1.47113471
C        0.12781285      -1.29938315       0.28650624      -1.09889133       1.41152399      -0.88756326
C       -1.27251281      -1.04761645       0.20500197      -0.35050867       1.14451853      -2.06219404
C       -1.89585127       0.19076681      -0.27060482      -1.36949576      -2.43469515       0.99502020
C       -1.10868173       1.28982701      -0.29172054       3.16844895       2.09009143      -0.33921669
C        0.33887855       1.13675284      -0.09894003      -2.08296870      -2.24564759      -1.07382533
H        2.83836005      -1.19701740       0.34976725       0.13426527       1.39239123      -0.45293807
H        3.18360488       0.36505634      -0.58161501      -0.27782955       0.15930457      -0.44172045
H        2.78936432       0.36962457       1.18493485      -0.27290624       0.11364713      -0.46465104
H        0.48964388      -2.33585724       0.34736781       0.15733768       0.04857832       0.29102249
H       -1.97059534      -1.83760545       0.04590320      -0.56858233      -1.57030190       0.58519731
H       -3.02987007       0.23596613      -0.59530521       2.01039423      -0.25148885       0.81929055
H       -1.47612646       2.30289538      -0.58670722       0.05337697      -0.42955610       0.19532542
H        0.98174403       1.96362640      -0.33716341       0.54063855       0.89182471       0.15292371
15
Lattice="20.0 0.0 0.0 0.0 20.0 0.0 0.0 0.0 20.0" Properties=species:S:1:pos:R:3:REF_forces:R:3 REF_energy=-7373.65853186126 config_type=Default pbc="T T T"
C        2.47634308      -0.23395651       0.28966945      -0.04664902       0.43508603      -2.51009753
C        0.98018710      -0.00833358       0.03900348       0.87280610       0.48848090      -0.31575388
C        0.32500391       0.28787209      -1.17526654       2.72622137       0.59119380      -1.23669114
C       -1.03229575       0.24981430      -1.25875852      -1.63587706      -0.29006707      -0.28110405
C       -1.89536795       0.05732354      -0.12990404      -1.46165685       0.22190610      -2.48391012
C       -1.31641452      -0.08691717       1.09432198       1.46586091      -0.58207944       1.25466804
C        0.15737991      -0.18199039       1.11311736      -2.91255282      -0.61574855       2.24485528
H        3.08035569       0.68182994       0.56207530      -0.45825501      -0.41152280      -0.33558131
H        2.48925901      -0.90377526       1.12010845       0.53148430      -0.94107655       1.08135039
H        2.94894969      -0.76135057      -0.63309349      -0.39101048       0.77224872       1.24343741
H        0.95515232       0.56106864      -2.10864111      -0.87684232      -0.62046503       1.15521119
H       -1.39404062       0.25199428      -2.28886870      -0.69887293       0.36226164      -0.16973909
H       -3.03989791      -0.01654842      -0.32502162       1.68443528       0.22032446       0.47216319
H       -2.02193457      -0.23690615       1.97571234       1.22796523       0.07295083      -0.51369653
H        0.61858037      -0.57383543       2.02990505      -0.02705664       0.29650681       0.39488812
15
Lattice="20.0 0.0 0.0 0.0 20.0 0.0 0.0 0.0 20.0" Properties=species:S:1:pos:R:3:REF_forces:R:3 REF_energy=-7373.743957507613 config_type=Default pbc="T T T"
C        2.44243791       0.01595159       0.13514869      -0.54162956      -3.21296102       2.37970249
C        0.92554439      -0.08010265       0.07820858       1.21916948       0.75491779      -0.05627882
C        0.22492980       0.96059464       0.78043497      -1.35719756      -2.46208825      -1.80463003
C       -1.16239766       0.99386511       0.67801256      -0.47226207      -0.15089331       0.61684415
C       -1.84503221       0.06234466      -0.13307467      -0.52797613       0.30852075      -0.72969588
C       -1.18150750      -0.88852932      -0.88413934       2.71830068      -1.48865436       0.09352727
C        0.29109894      -1.06555641      -0.68650404      -3.94302462       2.24089990       0.16875847
H        2.75115154      -0.00645787       1.23505585      -0.26127792      -0.43643283      -0.53435411
H        2.92312608      -0.90583060      -0.31490487      -0.02814895       1.05771485      -0.04055298
H        2.85659703       0.95626078      -0.06943947       0.76266128       1.90383805      -1.50943294
H        0.78107036       1.60223314       1.39157894       0.98051110       1.46109692       1.17160536
H       -1.79687655       1.65809312       1.29481992       0.30896345       0.21792274      -0.15371155
H       -2.92955567       0.14018346      -0.29865907      -0.12912512       0.15777281       0.28340066
H       -1.69574568      -1.57766738      -1.61439609       0.20799808       0.51970237       0.68559473
H        0.74382223      -1.84855460      -1.24306578       1.06303791      -0.87135641      -0.57077677
15
Lattice="20.0 0.0 0.0 0.0 20.0 0.0 0.0 0.0 20.0" Properties=species:S:1:pos:R:3:REF_forces:R:3 REF_energy=-7373.273325299853 config_type=Default pbc="T T T"
C        2.49309310      -0.03168050       0.11281663      -1.54549446      -4.19478745       2.41828508
C        0.95125327       0.05878553       0.14332912      -0.10662647      -3.39740280       0.19319613
C        0.30713955       1.00914239      -0.64135978       1.87902772       1.75530444       0.86197595
C       -1.03723382       1.08080068      -0.69733312      -5.01833677      -2.32111461       0.76166508
C       -1.89904067      -0.01945346      -0.13327580       3.89111919       1.70410319      -1.08374897
C       -1.26422209      -1.07274752       0.52692042       0.32354926       1.16563685      -0.32583148
C        0.13616279      -1.01384569       0.68271569      -0.48536133       3.08132110      -1.66630540
H        2.89798861      -0.84266241      -0.56587567      -0.35463930       0.82183481       0.11840408
H        2.75802936       0.91147336      -0.09070886       1.97034529       4.12212792      -1.59514385
H        2.99530076      -0.23695809       1.12631559      -0.83224849      -0.00424345      -0.75564289
H        0.94276597       1.86168534      -0.94214190      -0.16858579      -0.00451681      -0.54285983
H       -1.68688569       1.85417234      -1.13484365       0.67134470       0.38121268      -0.37308126
H       -2.91423941      -0.07846692      -0.41006269      -1.82783670       0.22691775      -0.11150895
H       -1.90935533      -1.85491252       0.91005861       0.05850422      -0.74430263       0.34123506
H        0.64437864      -1.74423342       1.18168981       1.54523884      -2.59209109       1.75936123
15
Lattice="20.0 0.0 0.0 0.0 20.0 0.0 0.0 0.0 20.0" Properties=species:S:1:pos:R:3:REF_forces:R:3 REF_energy=-7373.37679067611 config_type=Default pbc="T T T"
C        2.42464571      -0.36113761       0.18690499      -1.62451124       0.47297381      -1.29056794
C        0.93418279      -0.01526752       0.08897018       0.54602347      -1.18269078       1.08172469
C        0.31068825       1.22119872       0.45557759      -2.85210145      -4.59165357      -1.89160541
C       -1.11794522       1.22510923       0.32316649       1.10416965       0.00422597      -0.11685705
C       -1.83983265       0.14737321      -0.18631547      -1.14060490       1.48551345       0.95659033
C       -1.15006516      -0.98508855      -0.50689671      -1.75872170      -1.75804966      -0.79969000
C        0.18264635      -1.16014083      -0.37608326       1.08535503       2.54324311       0.07591624
H        2.57379816      -0.10880778      -0.89963681       1.33988020      -0.68463293       0.39497662
H        2.96745391       0.33676605       0.80311504       0.70709820       0.45015835       0.57113292
H        2.55233859      -1.44261830       0.47463828       0.25271352       0.78048432      -0.38761205
H        0.69304362       2.01318114       0.97416705       1.98527326       2.42925516       1.35409928
H       -1.64032185       2.08789919       0.68764334      -0.58111708       0.93476054       0.25422384
H       -2.95895930       0.15657049      -0.18793260       0.61147687       0.11164162      -0.18749543
H       -1.72357947      -1.83288603      -0.85932414      -0.48030577      -0.60956911      -0.33264814
H        0.58299144      -2.06742725      -0.81707909       0.80537188      -0.38566027       0.31781210
15
Lattice="20.0 0.0 0.0 0.0 20.0 0.0 0.0 0.0 20.0" Properties=species:S:1:pos:R:3:REF_forces:R:3 REF_energy=-7373.538019416196 config_type=Default pbc="T T T"
C        2.42688192      -0.35244225       0.29385765       1.01616824       3.00772801      -1.18652100
C        0.99332098      -0.03705964       0.03798443      -0.92359403      -1.46267640       0.17143164
C        0.28551497       1.07887422       0.53096506       0.56545762       1.05570152       0.43642198
C       -1.14210833       1.15581103       0.49049222       1.06947204       1.33897276       0.24800326
C       -1.88576085       0.11224707      -0.09339666       1.51592142       2.02897343       1.35039617
C       -1.18507269      -0.91892747      -0.64922243       0.18584941       0.52228931      -0.19808252
C        0.21270842      -1.00291045      -0.63434318      -1.70210107      -1.05022158      -0.32517384
H        2.92750533       0.43073071       0.93925786      -0.42121457      -0.82219564       0.16090426
H        2.67207827      -1.37085761       0.53967955       0.05471889      -0.87296119       0.45342401
H        2.92256482      -0.10142429      -0.67868781       0.26013881      -0.50253645       0.02419074
H        0.96334521       1.92664476       0.94192848      -1.28876318      -1.03015803      -0.25837134
H       -1.59477507       2.12097067       0.88949660       0.14955767      -1.10021442      -0.32515692
H       -2.93417492       0.16693672      -0.04746929      -1.93427487      -0.07018860      -0.17020332
H       -1.80782727      -1.61497635      -1.15737979      -0.35551877      -1.43663513      -0.72891694
H        0.36081736      -1.98095643      -1.14414790       1.80818237       0.39412239       0.34765377
15
Lattice="20.0 0.0 0.0 0.0 20.0 0.0 0.0 0.0 20.0" Properties=species:S:1:pos:R:3:REF_forces:R:3 REF_energy=-7373.679206115849 config_type=Default pbc="T T T"
C        2.41649340      -0.07456291       0.18691184       2.15657604       0.54550936       0.71767577
C        0.95618211      -0.04218511       0.04136562       0.23391824       1.35291570      -0.72029994
C        0.25240707      -1.09955747      -0.52138856       0.57382785      -0.35928677       0.33490788
C       -1.10554075      -1.03498701      -0.60700044      -3.20616004      -0.37330366      -0.09528128
C       -1.93003381       0.02585703      -0.04453417       5.30091730      -0.03792285      -0.71197327
C       -1.19471881       1.12898660       0.45151886       2.33742348      -1.69244673      -0.51557899
C        0.27597571       1.11329493       0.43112269      -2.33345169       0.46820220       0.90824984
H        2.66611114       0.67847377       0.98690402       0.32057285       0.05866877      -0.78810759
H        2.67243070      -0.98165987       0.73800002       0.36278203      -0.87704220      -0.07383221
H        3.16030098       0.01000628      -0.71054929      -1.37106553       0.00476472       1.01767239
H        0.79376206      -2.01611575      -0.78978317       0.01243776      -0.04443776      -0.31523354
H       -1.60008861      -1.90274987      -1.11448830      -0.04599148       0.44511164       0.34697175
H       -2.94443996       0.07758238      -0.19660516      -3.02918407      -0.13726508      -0.12456758
H       -1.65456699       1.94273248       0.94830996      -0.89777280       1.36041447       0.45024577
H        0.82974515       1.99218304       0.87776725      -0.41482990      -0.71388185      -0.43084906
15
Lattice="20.0 0.0 0.0 0.0 20.0 0.0 0.0 0.0 20.0" Properties=species:S:1:pos:R:3:REF_forces:R:3 REF_energy=-7373.365485709848 config_type=Default pbc="T T T"
C        2.51479161      -0.14123026       0.23241518      -1.66514486      -0.16300732      -1.95957432
C        0.93436206      -0.16007648       0.05229000       1.18901785       2.46417346      -0.59491362
C        0.05942601      -1.27195096       0.02308486      -1.03344271       3.47624815       0.11740752
C       -1.35722998      -1.12485112      -0.00184335       1.63744322       0.88661056      -0.45548161
C       -1.82807075       0.17376857      -0.02273567      -2.70202416       0.64777370      -0.29330815
C       -1.02529367       1.27878471      -0.13866515       2.53168328       0.69498460      -0.60648574
C        0.37948201       1.19092789      -0.18793726      -0.30617318      -2.02333469       1.67553849
H        2.99060014      -1.04679928       0.61755642       0.05097839      -0.48090813      -0.06106786
H        2.98562548       0.21083075      -0.74604818      -0.34443300      -0.87411973       0.48541126
H        2.80477503       0.68733104       0.84299628       0.06823013       0.92238325       1.27925724
H        0.43825206      -2.16879061       0.30000733       1.58048995      -3.66335236       0.45835786
H       -2.01018366      -1.96158295      -0.16080294      -0.57076247      -0.86567715       0.40471667
H       -2.90213410       0.50047953       0.00868811       0.25669940      -1.01783951      -0.10020869
H       -1.39191290       2.27434916      -0.31356005      -0.90324971       0.77277816       0.23115672
H        0.92836646       2.15632188      -0.03107304       0.21068781      -0.77671303      -0.58080577
15
Lattice="20.0 0.0 0.0 0.0 20.0 0.0 0.0 0.0 20.0" Properties=species:S:1:pos:R:3:REF_forces:R:3 REF_energy=-7373.347810436564 config_type=Default pbc="T T T"
C        2.53197185      -0.14184832      -0.01492633      -1.38932565      -0.68116924       4.21935676
C        0.97508681      -0.09199655       0.12135174       0.78415966      -2.11476189      -1.18864380
C        0.40640954       1.05772137      -0.36048244      -3.44610798       0.50858333      -0.88520952
C       -1.00976065       1.17888508      -0.58900051      -0.39393275      -0.98574165       2.63794517
C       -1.93508176       0.17986972      -0.07391963       2.45115494      -0.16944891      -1.10694310
C       -1.36681342      -1.04538129       0.41160870       0.87662738       1.32582280      -0.86973662
C        0.08494023      -1.15306258       0.48037789      -1.65472700       1.17070254       0.07686282
H        2.75367738       0.33676223       0.98951109       0.63322074       0.35473376      -0.73366057
H        3.11989915      -1.06448391       0.14408463      -0.66760127      -0.62588554      -0.41351000
H        2.97556027       0.40447265      -0.80183106       0.33613831       1.12611113      -1.39831860
H        0.96967842       1.92105318      -0.60037904       1.16808084       1.13845793      -0.52494794
H       -1.45690769       2.15358083      -0.80298360       0.13531186       0.29186278      -0.56942714
H       -3.01345644       0.32952516      -0.19612176      -0.17872777      -0.07309096       0.06240839
H       -2.07498388      -1.89298822       0.55867772       0.62997040       0.14255121       0.50671563
H        0.45927679      -1.99830652       1.00754031       0.71575834      -1.40872720       0.18710858
15
Lattice="20.0 0.0 0.0 0.0 20.0 0.0 0.0 0.0 20.0" Properties=species:S:1:pos:R:3:REF_forces:R:3 REF_energy=-7373.85155748484 config_type=Default pbc="T T T"
C        2.48420677      -0.02487496       0.15418533      -2.37966737      -0.39210783      -1.06632573
C        0.92423430      -0.01258163       0.10538313       2.18109866       0.51230937       0.29760565
C        0.23973173       1.17815056       0.25328642      -1.99566664       0.15727278       0.94856998
C       -1.18978663       1.18250968       0.21967388       2.02440412       0.06234205      -0.82844239
C       -1.83266054       0.02222724      -0.14511131      -2.32849044      -0.26090243       0.21945311
C       -1.15578104      -1.15240152      -0.39056856       0.40569549      -1.47342381       0.11033236
C        0.23461445      -1.18409294      -0.16525863      -0.91497893      -0.67070773      -1.82530098
H        2.79758952      -0.16916266       1.16947710       0.60585988      -0.52109843       1.08394761
H        2.65992563      -0.88315884      -0.51536730       1.09510733      -0.04997695       0.16993603
H        2.94112847       0.90240640      -0.20639393       0.04688288       0.26268899      -0.32855613
H        0.78490594       2.05160494       0.57302946       0.36970005       0.86813554      -0.10971591
H       -1.76690074       2.08485797       0.17699937      -0.38546420       1.06107513       0.57273055
H       -2.95016850       0.02662958      -0.18748472       0.46131262       0.04516508      -0.25763903
H       -1.69247754      -2.06907666      -0.77771469       0.41229407       0.71279139       0.43397876
H        0.74655788      -2.04939630      -0.60826899       0.40191253      -0.31356315       0.57942611
15
Lattice="20.0 0.0 0.0 0.0 20.0 0.0 0.0 0.0 20.0" Properties=species:S:1:pos:R:3:REF_forces:R:3 REF_energy=-7373.627625418183 config_type=Default pbc="T T T"
C        2.52143961       0.02280637       0.18981038      -0.30985402      -2.05812439      -2.57905349
C        0.96383310      -0.11370043       0.12667922       1.78241837       1.70897126      -0.38933222
C        0.27625497       1.04606857       0.48016297      -2.62347058       0.13233134       0.42424245
C       -1.17157216       1.10967161       0.34674256       2.12624037       1.73692090       0.59342207
C       -1.93117134       0.07478298      -0.16502478       1.56764287       0.61448084       0.84042877
C       -1.19677071      -1.04579830      -0.49894499       1.31381338       0.75040992      -0.28434683
C        0.20633169      -1.13534401      -0.46704670      -1.15939740       1.55316678       1.45425274
H        2.89645897      -1.04312281       0.37463731       0.25217616       1.14701024      -0.15170784
H        2.97199012       0.40835490      -0.84895715      -0.92158101      -0.94347251       1.59218651
H        2.94457969       0.73201533       0.89277745      -0.18737367       0.31378956       0.88323013
H        0.78893728       1.91651058       0.92746542       0.01894445      -0.12053244      -0.15843698
H       -1.60299048       2.09272712       0.61050826      -0.26321118      -0.19127526       0.04916175
H       -2.98134472       0.21536752      -0.24836275      -1.37593113      -0.25725255      -0.29041643
H       -1.66779014      -1.80757304      -1.00649322      -1.50737405      -2.43624594      -1.18210225
H        0.60224795      -2.01841288      -0.84837210       1.28695744      -1.95017776      -0.80152839
15
Lattice="20.0 0.0 0.0 0.0 20.0 0.0 0.0 0.0 20.0" Properties=species:S:1:pos:R:3:REF_forces:R:3 REF_energy=-7373.686074153307 config_type=Default pbc="T T T"
C        2.37527180      -0.26667447       0.19651783       1.47977824       0.73764568       0.62454748
C        0.96776578      -0.02317616       0.04605957      -2.82542219       0.44576562      -0.89492664
C        0.20942358       0.42621352       1.14703305       0.57640244      -0.75344871       0.88402753
C       -1.19456391       0.49280068       1.07389665      -0.58876482      -0.30808917       0.91726084
C       -1.86875571       0.03955076      -0.07985157       3.10611621       0.53845142      -0.35042979
C       -1.07080495      -0.35036659      -1.21202721      -2.23079963       0.77824952       0.26869344
C        0.29128296      -0.28761344      -1.19835661       1.68017624      -0.22806744       0.96796489
H        2.74104131      -0.55018297      -0.79466143       0.87513506       0.11784363      -0.21319911
H        2.81236158       0.71430662       0.62628867       0.26680995      -1.53589530      -0.43070580
H        2.47210485      -1.16141234       0.85953407       0.53756701       0.43424245       0.09350125
H        0.79883258       0.52959524       2.12712848      -0.92551480       0.25971386      -0.98555988
H       -1.80988728       0.79162225       1.98579935       0.66536328      -0.05695446      -0.92435718
H       -2.85856907       0.36679620      -0.18834172      -2.24862190      -0.22762223      -0.29003797
H       -1.56523551      -0.57484131      -2.16395575      -0.26005849      -0.08014735      -0.13934536
H        0.86961094      -0.48092467      -2.13258657      -0.10816657      -0.12168764       0.47256634
15
Lattice="20.0 0.0 0.0 0.0 20.0 0.0 0.0 0.0 20.0" Properties=species:S:1:pos:R:3:REF_forces:R:3 REF_energy=-7373.463605715519 config_type=Default pbc="T T T"
C        2.41630116      -0.19197001       0.22764426       0.47696421      -1.76948505       1.22643707
C        0.95978583      -0.13751941       0.03399366      -1.17048246      -0.57156893      -1.27708245
C        0.19633175      -1.22119663      -0.46140472      -3.04033896       0.86671089       0.71854254
C       -1.26243919      -0.97113085      -0.47724838       2.52956237      -3.89714699      -0.44504700
C       -1.81701337       0.16042006       0.01318206      -4.06265445       1.27989395      -1.29365300
C       -1.08067367       1.27313852       0.30848303       2.15352872       1.23168217       0.52223609
C        0.30617932       1.10708677       0.29736759       0.89466269       0.36067609       1.16588893
H        3.01633215      -0.84335477      -0.47989381      -0.54671515       0.63940753       0.31457714
H        2.62674348       0.86376645       0.17171469       1.53372107       0.70233765       0.29461952
H        2.54549145      -0.66251104       1.28266028       0.41310788       0.91056671      -1.10594679
H        0.48168153      -2.28618651      -0.66808888       0.47472591       0.90623060      -0.03028862
H       -1.88809727      -1.87146767      -0.77515466       0.31254355       1.00611795       0.16458932
H       -2.93879230       0.31600591      -0.13794403       0.93224085      -0.41712955       0.52334650
H       -1.40864212       2.30178997       0.55751994      -0.58969345      -0.49409639      -0.01610138
H        0.92005792       1.95878771       0.74081924      -0.31117285      -0.75419659      -0.76211780
15
Lattice="20.0 0.0 0.0 0.0 20.0 0.0 0.0 0.0 20.0" Properties=species:S:1:pos:R:3:REF_forces:R:3 REF_energy=-7373.664339776439 config_type=Default pbc="T T T"
C        2.43848800      -0.07953295       0.17870038      -1.22402383      -2.82961484       0.55178331
C        0.92531640       0.03617468       0.01787503       0.47400281      -0.16026349       1.80302386
C        0.31239301      -0.03912459      -1.23802846      -0.00871815      -0.59577627       1.19926421
C       -1.06746631      -0.23653240      -1.22997485      -0.70446662       0.38326493      -3.22059025
C       -1.82617154       0.02857761      -0.10982930      -0.69570230       0.11764977      -0.61522631
C       -1.22034873       0.23051416       1.09155245      -0.40650051       0.13339042       2.71145445
C        0.12582548       0.09400796       1.24976246       2.47872442       0.11739482      -2.87106874
H        2.82534412      -1.02597093      -0.33586335      -0.23609915       1.12132183      -0.22085601
H        2.97383522       0.80275927      -0.11051641       0.87335653       0.88930282      -0.08989286
H        2.55107904      -0.44255079       1.23069717       0.59122213       0.92255124      -0.03200473
H        0.92388036      -0.05122653      -2.14131471       0.05808981      -0.19455023      -0.33206239
H       -1.54754813      -0.46113923      -2.25045207       0.25452784       0.37698841       1.26925581
H       -2.87871750       0.23090170      -0.12944533      -1.15888776      -0.38364530      -0.43710697
H       -1.78752194       0.43422066       2.01645175      -0.35977832       0.00930775      -0.20273287
H        0.65709596       0.10804391       2.19710709       0.06425310       0.09267824       0.48675955
15
Lattice="20.0 0.0 0.0 0.0 20.0 0.0 0.0 0.0 20.0" Properties=species:S:1:pos:R:3:REF_forces:R:3 REF_energy=-7373.321057993699 config_type=Default pbc="T T T"
C        2.38548456      -0.20695680       0.19917940      -1.91523112      -2.30351346       2.27554664
C        0.90258128       0.00291245      -0.03569597       3.63346658      -1.39253341       1.16963595
C        0.19812096      -1.12702211      -0.40810078       1.81602233      -0.29320099      -1.49783706
C       -1.10801416      -0.99826553      -0.55824442      -4.66133869       0.49230269      -0.06074103
C       -1.81989805       0.19786198      -0.22499698      -1.57354632      -2.65358534      -0.45405727
C       -1.11387763       1.15575998       0.39886970       0.77881660       1.44454513       1.09128117
C        0.26877043       1.03480625       0.56093533      -0.76648610       3.13879724      -0.19104865
H        3.06578889       0.48740633      -0.13928823       1.81065618       2.39887937      -1.00187743
H        2.46469246      -0.30967132       1.34083678       0.38711331       0.17406605      -1.08438727
H        2.66260320      -1.18666072      -0.20641493       0.29792678      -0.29775241      -0.15736678
H        0.63374829      -2.01681111      -0.87167183       0.64259925      -0.25016947       0.42589655
H       -1.67865228      -1.87598129      -0.83689689      -0.51860729      -0.41195371      -0.50578324
H       -2.93847559       0.20493557      -0.28288723       0.63427042       0.13099122      -0.14778526
H       -1.55102835       2.02006933       0.86547686      -0.75501873       0.79603862       0.12971498
H        0.75930628       1.97370912       0.94248794       0.18935681      -0.97291154       0.00880870
15
Lattice="20.0 0.0 0.0 0.0 20.0 0.0 0.0 0.0 20.0" Properties=species:S:1:pos:R:3:REF_forces:R:3 REF_energy=-7373.165753829599 config_type=Default pbc="T T T"
C        2.48252091      -0.13985496       0.10826226       0.65535279       0.48837754      -0.33831943
C        0.99882385       0.03666312       0.13246323      -0.33315208       0.80625922      -1.26740816
C        0.31307200       1.13917042      -0.39872875      -0.44438756       0.64279805      -1.86891378