12
Lattice="20.0 0.0 0.0 0.0 20.0 0.0 0.0 0.0 20.0" Properties=species:S:1:pos:R:3:REF_forces:R:3 REF_energy=-6306.505539488648 config_type=Default pbc="T T T"
C      -99.97730000     111.83800000     -92.59020000      -0.29271490      -0.01466573       0.51510138
C     -100.63000000     110.70500000     -92.03030000       0.73636239      -0.80930716      -0.46057543
C      -99.87170000     109.51000000     -91.82590000      -0.22899077      -0.64499603       0.02008088
C      -98.48750000     109.54000000     -92.17190000      -1.60618571      -3.19242109       1.13251575
C      -97.92340000     110.62600000     -92.74160000       2.48036689       0.24527825      -0.73098616
C      -98.60900000     111.77400000     -92.95300000      -2.60230253       1.20731099       0.19694938
H     -100.54500000     112.79200000     -92.67750000       0.17369565      -0.36756290      -0.24350527
H     -101.72600000     110.66800000     -91.91160000       0.08830803       0.26991281       0.29195853
H     -100.33800000     108.48600000     -91.47200000       0.66456907       1.99464108      -0.50583070
H      -97.91160000     108.58100000     -92.08390000      -0.21249334       0.60549160       0.09371733
H      -96.87930000     110.60400000     -93.07410000       0.27127020      -0.20247015       0.01444091
H      -98.16640000     112.60300000     -93.46690000       0.52811497       0.90878833      -0.32386664
12
Lattice="20.0 0.0 0.0 0.0 20.0 0.0 0.0 0.0 20.0" Properties=species:S:1:pos:R:3:REF_forces:R:3 REF_energy=-6306.3012304039075 config_type=Default pbc="T T T"
C     -177.12200000     196.47900000    -162.99000000       2.64158215      -0.84307094      -0.68952157
C     -177.67400000     196.38000000    -164.26900000      -1.80901571       0.16943770       0.75942868
C     -176.93600000     196.51900000    -165.45000000      -1.00238852      -0.72728069      -0.35804915
C     -175.60700000     196.69900000    -165.30600000       3.72338582       2.01526215      -0.04336700
C     -175.01600000     196.93200000    -164.01900000       1.41722721      -0.18953977      -1.28576938
C     -175.68400000     196.62800000    -162.86100000      -2.84317952       0.86937106      -0.83578566
H     -177.67700000     196.30600000    -162.09100000      -0.90179802      -0.05952613       0.73648190
H     -178.77200000     196.24800000    -164.26800000       0.05424698      -0.01394499      -0.39323377
H     -177.29300000     196.48400000    -166.49200000      -0.64602483      -0.17637505       0.28858205
H     -174.93500000     196.92000000    -166.20300000      -0.77407153      -0.35670888       0.79719325
H     -173.99800000     197.40200000    -163.93900000      -0.36676087      -0.72086270      -0.26730109
H     -175.22100000     196.78600000    -161.91600000       0.50679672       0.03323824       1.29134169
12
Lattice="20.0 0.0 0.0 0.0 20.0 0.0 0.0 0.0 20.0" Properties=species:S:1:pos:R:3:REF_forces:R:3 REF_energy=-6306.316544521518 config_type=Default pbc="T T T"
C     -142.78500000     160.89300000    -133.03200000       2.04964011       0.56104941      -0.17560655
C     -144.01300000     160.39000000    -132.69700000       0.58792942       0.21365893      -0.68023269
C     -144.32400000     159.06800000    -132.89200000      -1.17510242      -0.63673472      -0.48913185
C     -143.43100000     158.16300000    -133.47400000       1.67830705      -0.77636732       1.33413909
C     -142.07000000     158.58300000    -133.61600000      -1.11593105       1.62078788       0.31949551
C     -141.78400000     159.98000000    -133.37300000       1.85588003      -1.57698080      -0.69048296
H     -142.53500000     161.98300000    -133.00200000      -0.20732882      -0.54643516       0.29350818
H     -144.67700000     161.10400000    -132.32800000      -1.98210114       1.18390634       0.82628801
H     -145.37000000     158.83500000    -132.68100000      -0.22095407      -0.67445774       0.16860775
H     -143.61300000     157.05900000    -133.40000000      -0.28032074       0.59535333      -0.66408385
H     -141.27500000     157.87700000    -133.89700000       0.01961489       0.03339801       0.03399605
H     -140.67900000     160.27000000    -133.39600000      -1.20963326       0.00282173      -0.27649674
12
Lattice="20.0 0.0 0.0 0.0 20.0 0.0 0.0 0.0 20.0" Properties=species:S:1:pos:R:3:REF_forces:R:3 REF_energy=-6306.389028591121 config_type=Default pbc="T T T"
C     -111.88100000     126.06100000    -105.78000000      -0.24692345      -0.30623659      -0.40955415
C     -112.25200000     127.21200000    -105.12700000      -1.61030811       1.78703201       0.42214793
C     -113.62600000     127.41300000    -104.75700000       1.83417771      -1.90735059      -1.08904842
C     -114.49200000     126.31200000    -104.97500000      -0.55361502       3.36400294       2.14971670
C     -114.08200000     125.14700000    -105.48100000       1.19101308      -1.96497795      -1.66422569
C     -112.79700000     125.06000000    -106.04500000       0.03420642      -1.13664484      -0.38279478
H     -110.88500000     125.98300000    -106.15400000       1.17893347      -0.12677528      -0.53004335
H     -111.52700000     128.04000000    -105.13200000       0.00349660       0.09135530       0.54477294
H     -113.96400000     128.32300000    -104.31800000      -0.42613664       1.08765237       0.43885110
H     -115.51500000     126.42700000    -104.63900000      -0.70126395      -0.02909075       0.24693846
H     -114.77400000     124.32300000    -105.47200000      -0.51586767      -0.77670408      -0.46822246
H     -112.50200000     124.26700000    -106.77400000      -0.18771238      -0.08226250       0.74146166
12
Lattice="20.0 0.0 0.0 0.0 20.0 0.0 0.0 0.0 20.0" Properties=species:S:1:pos:R:3:REF_forces:R:3 REF_energy=-6306.483628589901 config_type=Default pbc="T T T"
C      -90.50890000      99.37950000     -83.61690000      -0.53851781       0.58867026      -0.80276828
C      -89.41920000      99.67020000     -84.45320000       0.66191775       0.20325676      -0.15598739
C      -88.15460000      99.84020000     -83.88260000       0.50021073      -0.66559365       0.92281905
C      -87.94250000      99.58160000     -82.49410000      -0.23354332       0.33643224      -1.01531453
C      -89.03290000      99.26430000     -81.70850000      -1.52218689       0.36467904       0.18545537
C      -90.36970000      99.21730000     -82.25620000       4.79936980       0.35136798      -1.08477561
H      -91.48650000      99.47450000     -84.08230000      -0.65726230      -0.46757953      -0.10400164
H      -89.53820000      99.76690000     -85.55450000      -0.12908547       0.14392603       0.40974148
H      -87.26790000     100.12000000     -84.44920000       0.17454859       0.07267187      -0.56570265
H      -86.94860000      99.65370000     -82.03730000       0.18816171       0.12236528      -0.08216253
H      -88.91690000      99.21870000     -80.61630000       0.03507478      -0.37213946       0.09611868
H      -91.07610000      98.97390000     -81.57660000      -3.27868762      -0.67805677       2.19657809
12
Lattice="20.0 0.0 0.0 0.0 20.0 0.0 0.0 0.0 20.0" Properties=species:S:1:pos:R:3:REF_forces:R:3 REF_energy=-6306.589697221535 config_type=Default pbc="T T T"
C      -47.96110000      52.11320000     -42.82930000      -0.22092317       0.63702561      -1.07752613
C      -46.58230000      51.92050000     -42.90020000       1.01267931       0.31697624       0.14154596
C      -45.81850000      52.37580000     -43.99230000      -1.24653127      -0.01968087      -0.26811386
C      -46.43610000      53.09920000     -45.00810000       0.51784110      -0.56847023       0.44955188
C      -47.79640000      53.33070000     -44.94170000      -0.27342736       0.80664319      -0.53230571
C      -48.55940000      52.85240000     -43.89540000      -0.44108770      -1.01744665       1.40463554
H      -48.61060000      51.71400000     -42.03770000       0.21704959       0.06740743       0.22681207
H      -45.94010000      51.58460000     -42.08870000      -0.29229812      -0.85492979       0.63201885
H      -44.79900000      52.08240000     -44.14410000       1.15953444      -0.07479216       0.37217021
H      -45.83370000      53.45800000     -45.82740000       0.29009253       0.31160834      -0.71899716
H      -48.20580000      53.95860000     -45.72760000      -0.60611370       0.18870812      -0.33707537
H      -49.64520000      52.99740000     -43.82090000      -0.11681565       0.20695076      -0.29271629
12
Lattice="20.0 0.0 0.0 0.0 20.0 0.0 0.0 0.0 20.0" Properties=species:S:1:pos:R:3:REF_forces:R:3 REF_energy=-6306.4499446435675 config_type=Default pbc="T T T"
C     -178.96600000     200.12800000    -165.83600000      -0.89283320       1.21203082       0.20538974
C     -179.75300000     198.97800000    -165.64500000      -1.05824337       0.81340010      -0.22831159
C     -179.20200000     197.74600000    -165.97800000      -1.20572411      -0.56322894       0.81761558
C     -177.84000000     197.72900000    -166.24900000       1.43169239      -1.40578550      -0.22489691
C     -177.01000000     198.86300000    -166.42700000      -1.60772477      -1.12887126      -0.44699152
C     -177.66800000     200.07900000    -166.32400000       0.92612019      -0.12567506       0.53402717
H     -179.32700000     201.16000000    -165.64000000      -0.38072761      -0.41294338       0.06467610
H     -180.83300000     199.01100000    -165.31500000       0.87252626       0.29005859      -0.21331466
H     -179.92600000     196.85600000    -165.89400000       1.45721399       0.69075272      -0.16717235
H     -177.34700000     196.74900000    -166.26000000       0.07949604      -0.29286006      -0.38803505
H     -175.99100000     198.74400000    -166.80100000       0.33413485       0.04584467       0.22232396
H     -177.06500000     200.96500000    -166.46500000       0.04406938       0.87727730      -0.17531051
12
Lattice="20.0 0.0 0.0 0.0 20.0 0.0 0.0 0.0 20.0" Properties=species:S:1:pos:R:3:REF_forces:R:3 REF_energy=-6306.383848544711 config_type=Default pbc="T T T"
C      -68.21870000      78.14610000     -64.91700000      -2.35012046      -1.38910711      -0.08678280
C      -69.55770000      78.66450000     -64.84660000       0.90748309      -0.88697406       1.53910043
C      -70.57680000      77.86210000     -64.31090000       0.21940791       0.04044623      -0.55580498
C      -70.37250000      76.51090000     -64.02050000      -0.81143999       0.43449714      -0.89472471
C      -69.20100000      75.91510000     -64.40410000       2.61984188       0.74842590       0.36522715
C      -68.07860000      76.75610000     -64.78680000      -1.47615592      -0.98831718       0.33725273
H      -67.34740000      78.72660000     -65.06130000       1.13684456       1.17641574      -0.51655210
H      -69.79760000      79.70740000     -64.87490000       0.14048878       1.21707398      -0.53383069
H      -71.59170000      78.22750000     -64.15630000      -0.24176818       0.54443078       0.05873839
H      -71.25080000      75.97820000     -63.69910000      -0.45594338      -0.79140698       0.55867027
H      -68.95540000      74.87460000     -64.16930000      -0.24574850      -0.37359183      -0.24664021
H      -67.15300000      76.20090000     -64.95010000       0.55711028       0.26810733      -0.02465349
12
Lattice="20.0 0.0 0.0 0.0 20.0 0.0 0.0 0.0 20.0" Properties=species:S:1:pos:R:3:REF_forces:R:3 REF_energy=-6306.436651487877 config_type=Default pbc="T T T"
C      -77.46280000      87.21950000     -73.97210000      -1.60720402       0.72559420      -0.42343682
C      -76.87060000      87.55940000     -72.74210000      -0.12217275      -0.65114359      -1.61951893
C      -77.58660000      87.44910000     -71.58370000      -2.90316047      -0.67346102      -0.74844087
C      -78.99770000      87.12630000     -71.65690000       2.55588188       0.40401672       0.76863714
C      -79.60430000      87.03250000     -72.89210000      -0.71989509      -1.08164061      -0.51053222
C      -78.88920000      87.00070000     -74.09410000       2.31264853       0.72476193      -0.18049170
H      -76.82080000      87.30690000     -74.84950000       0.02880268      -0.22127849      -0.50266912
H      -75.81850000      87.80240000     -72.76980000       0.74732583       0.17096267       0.27030367
H      -77.06060000      87.51580000     -70.68580000       0.78406710       0.28766515       2.22320181
H      -79.51300000      86.83590000     -70.73670000      -0.34196664       0.32847786       0.17153382
H      -80.64600000      86.73380000     -72.88390000      -0.78998722       0.09020057      -0.19550678
H      -79.33340000      86.88770000     -75.11640000       0.05566006      -0.10415534       0.74691996
12
Lattice="20.0 0.0 0.0 0.0 20.0 0.0 0.0 0.0 20.0" Properties=species:S:1:pos:R:3:REF_forces:R:3 REF_energy=-6306.526749442617 config_type=Default pbc="T T T"
C      -74.81480000      85.40020000     -71.11140000      -0.03704065       1.58363256      -0.84402656
C      -74.74550000      84.23970000     -70.30580000       0.51857499      -0.28022823      -0.35570512
C      -75.89200000      83.50210000     -69.99970000      -0.65112395       0.61145368      -0.15990796
C      -77.13270000      84.00040000     -70.42450000      -0.15840607      -0.22965849       0.68222956
C      -77.22530000      85.22130000     -71.07750000       0.85247325       0.39330782      -0.53139390
C      -76.07370000      85.94850000     -71.52110000      -0.92166658      -1.37174121       1.64745762
H      -73.92000000      86.01700000     -71.43960000      -0.43958808      -0.87314683       0.57971855
H      -73.79840000      83.82480000     -69.91380000       0.13062659       0.40717794      -0.25174853
H      -75.89200000      82.63260000     -69.34290000       0.33664662      -0.40326894       0.08680774
H      -78.07690000      83.52900000     -70.10050000       0.14244960      -0.18631067      -0.06432437
H      -78.23540000      85.59670000     -71.15690000      -0.58652812       0.58218352      -0.54622839
H      -76.31140000      86.94650000     -71.93990000       0.81358249      -0.23340109      -0.24287869
12
Lattice="20.0 0.0 0.0 0.0 20.0 0.0 0.0 0.0 20.0" Properties=species:S:1:pos:R:3:REF_forces:R:3 REF_energy=-6306.260746279945 config_type=Default pbc="T T T"
C     -142.04400000     157.76000000    -133.46900000      -3.21512188      -1.45128492      -2.16343570
C     -143.30700000     158.13300000    -132.88600000      -0.14598081      -0.67662615      -2.34548949
C     -143.31100000     158.85000000    -131.71300000      -0.52484638       0.11537347       1.62826207
C     -142.09800000     159.01300000    -131.00900000      -0.31156941      -0.49308184      -1.72262094
C     -140.87800000     158.70800000    -131.65400000      -0.03319999       1.64604120       2.68512491
C     -140.87700000     158.08900000    -132.85500000       1.17932752      -0.36651075      -1.83766983
H     -142.05900000     157.18600000    -134.49400000       0.09240678       0.96835344       1.73490166
H     -144.27900000     157.88700000    -133.43300000       1.05164042       0.29866505       0.52725982
H     -144.25700000     159.23700000    -131.22100000       0.68638010      -0.56552334      -0.51077319
H     -142.25000000     159.24500000    -129.98800000       0.56826336       1.05575778       1.55266547
H     -139.93500000     159.11000000    -131.25000000       0.07010144      -0.43182006       0.37043821
H     -139.96700000     157.91300000    -133.42700000       0.58259885      -0.09934388       0.08133695
12
Lattice="20.0 0.0 0.0 0.0 20.0 0.0 0.0 0.0 20.0" Properties=species:S:1:pos:R:3:REF_forces:R:3 REF_energy=-6306.599489242599 config_type=Default pbc="T T T"
C      -26.92590000      31.30980000     -26.94170000       0.27239351      -0.18760280       0.44670788
C      -28.17840000      31.67160000     -27.39500000      -0.04551958       0.93857178      -1.01338497
C      -29.30620000      31.61400000     -26.59380000       0.50077242      -1.30205054       1.50475420
C      -29.16740000      31.12720000     -25.25590000       1.82602690       0.48527227      -0.79107027
C      -27.84690000      30.86100000     -24.71650000      -1.07807223       0.28809668      -2.29311334
C      -26.74250000      30.88490000     -25.62340000      -1.46037130       0.61305810       0.50442734
H      -26.06620000      31.44170000     -27.59700000       0.36003363      -0.12472020      -0.24226584
H      -28.22510000      32.13600000     -28.38950000      -0.25849382      -0.15459282      -0.24655455
H      -30.26910000      31.83780000     -27.02250000      -0.80995775       0.27339804      -0.10759650
H      -30.06280000      31.00910000     -24.66820000      -0.54352380       0.00034422       0.72123387
H      -27.74230000      30.68670000     -23.65800000       0.21115436      -0.43148808       0.71613002
H      -25.72620000      30.71600000     -25.34250000       1.02555760      -0.39828665       0.80073227
12
Lattice="20.0 0.0 0.0 0.0 20.0 0.0 0.0 0.0 20.0" Properties=species:S:1:pos:R:3:REF_forces:R:3 REF_energy=-6306.5612141999 config_type=Default pbc="T T T"
C      -59.52890000      66.31280000     -54.08060000       0.26600067       0.17237796      -0.36860486
C      -59.93820000      65.00310000     -54.27600000      -1.46811495      -0.56362226      -0.43485437
C      -59.06880000      64.02840000     -54.81670000       0.62655762       0.96114288       0.59670254
C      -57.70490000      64.41080000     -55.02890000      -0.92239276       0.28274035       0.40585341
C      -57.25800000      65.75230000     -54.79150000      -1.75743182      -1.27464921      -1.03845611
C      -58.24550000      66.68320000     -54.41920000       1.58540410      -0.10298682       0.41247457
H      -60.16630000      67.14340000     -53.80620000      -0.83850430       0.08171660       0.38599010
H      -61.03880000      64.83760000     -54.14200000       0.61915999      -0.43862994       0.04385027
H      -59.45230000      63.01340000     -55.03680000       0.27716574       0.17757344       0.02488164
H      -57.05470000      63.62320000     -55.40100000       0.60221303      -0.12875025      -0.23668022
H      -56.30670000      66.08060000     -55.19570000       0.71539901       0.09862983       0.25704650
H      -57.97780000      67.72440000     -54.30290000       0.29454362       0.73445741      -0.04820340
12
Lattice="20.0 0.0 0.0 0.0 20.0 0.0 0.0 0.0 20.0" Properties=species:S:1:pos:R:3:REF_forces:R:3 REF_energy=-6306.393034800811 config_type=Default pbc="T T T"
C     -171.51400000     189.68600000    -158.07300000      -0.99622990       0.44407363      -0.15195235
C     -170.77700000     188.54200000    -158.40700000      -1.97675906      -1.59671505       0.12390310
C     -169.46700000     188.59100000    -158.78800000       1.77507006       3.12344719       0.33527313
C     -168.96900000     189.93900000    -158.78700000       2.87035839      -0.84514463      -1.40493302
C     -169.70000000     191.11000000    -158.56500000       1.69377244       0.31878640      -0.33608118
C     -171.00400000     190.99100000    -158.17500000      -1.46890906      -0.84346020       0.33893017
H     -172.59500000     189.61700000    -157.84100000       0.23615706      -0.34956435       0.07459053
H     -171.32600000     187.58200000    -158.45100000       0.03657003       0.01444153       0.27140883
H     -168.69800000     187.84100000    -159.01800000      -0.63959815      -0.54961854      -0.03473997
H     -167.85600000     190.02700000    -159.12600000      -1.57872386       0.14777708       0.58879203
H     -169.20400000     192.08800000    -158.72000000      -0.11530801      -0.16143509       0.11889845
H     -171.70000000     191.82000000    -158.00100000       0.16360006       0.29741210       0.07591028
12
Lattice="20.0 0.0 0.0 0.0 20.0 0.0 0.0 0.0 20.0" Properties=species:S:1:pos:R:3:REF_forces:R:3 REF_energy=-6306.358005586859 config_type=Default pbc="T T T"
C      -72.55290000      82.44230000     -68.74410000      -0.74448975       1.71172995       1.43656093
C      -73.20470000      81.82740000     -69.80150000       0.17831526       0.09489047      -2.68616009
C      -74.61770000      81.89270000     -70.01240000      -0.40847316       0.29263206       0.37816119
C      -75.37780000      82.53560000     -68.98060000       0.32037971      -0.94380398      -1.28343837
C      -74.72930000      83.02940000     -67.85790000       0.16761962       0.03140155       0.89026225
C      -73.32640000      83.06730000     -67.73580000      -0.52238640      -0.00065702       0.66123383
H      -71.51150000      82.75760000     -68.73150000       0.72612287      -0.73475663      -0.28666098
H      -72.52580000      81.57880000     -70.67920000      -0.77241368      -0.35065193       0.73339441
H      -75.15640000      81.52620000     -70.96570000       0.99420007       0.36252030       1.25691122
H      -76.46830000      82.67080000     -69.05430000      -0.02266654      -0.22873593      -0.10485061
H      -75.35660000      83.33450000     -67.00920000      -0.00687600       0.49627402       0.01985812
H      -72.93640000      83.63000000     -66.82590000       0.09066800      -0.73084290      -1.01527185
12
Lattice="20.0 0.0 0.0 0.0 20.0 0.0 0.0 0.0 20.0" Properties=species:S:1:pos:R:3:REF_forces:R:3 REF_energy=-6306.442835496433 config_type=Default pbc="T T T"
C      -98.72220000     108.10300000     -90.74060000      -1.96017673       0.11920020      -1.12327896
C      -99.29420000     109.30600000     -91.22790000       1.95086275      -0.73553347       0.98641199
C      -98.40110000     110.32100000     -91.57530000      -1.39383815       0.99815751      -0.62095359
C      -97.03620000     110.18000000     -91.42630000      -0.41695543      -1.50882425       0.42013615
C      -96.47350000     108.96800000     -91.00270000      -0.41917553       1.14500673      -0.23271301
C      -97.36100000     107.93500000     -90.76270000       1.54270589      -2.70634777       1.41381233
H      -99.40920000     107.26400000     -90.49820000       0.32808484       0.18738518       0.15477686
H     -100.33100000     109.45800000     -91.08580000      -1.67421643       0.31535331      -0.35006680
H      -98.76680000     111.30300000     -91.96820000      -0.02010500      -0.44810970       0.33307103
H      -96.51550000     111.07000000     -91.55510000       1.82254722       1.79864661      -0.45365402
H      -95.41800000     108.90900000     -90.76640000       0.61430853      -0.27155055      -0.14079453
H      -96.95050000     106.92000000     -90.42010000      -0.37404197       1.10661626      -0.38674744
12
Lattice="20.0 0.0 0.0 0.0 20.0 0.0 0.0 0.0 20.0" Properties=species:S:1:pos:R:3:REF_forces:R:3 REF_energy=-6306.542045313635 config_type=Default pbc="T T T"
C      -28.96060000      33.53410000     -28.42860000       1.04568888       0.67269473      -0.69074927
C      -29.91300000      32.99200000     -29.26420000       0.98285785      -1.24874581      -0.94718565
C      -31.23700000      33.16650000     -28.97230000      -2.26190015      -0.07778158      -2.00285910
C      -31.69020000      34.03670000     -27.98280000      -0.25568376      -0.50817735      -0.14982301
C      -30.72470000      34.69130000     -27.22130000      -0.72118615      -0.65144230       0.43032028
C      -29.37880000      34.40890000     -27.45890000       0.55997335       1.11701596       2.31946144
H      -27.88870000      33.46930000     -28.63800000       0.24009794      -0.39284563       0.01652469
H      -29.60890000      32.39030000     -30.14480000      -0.09088541       0.04259320       0.24160049
H      -31.96560000      32.75260000     -29.73410000       0.33228829       0.09073114       0.88377217
H      -32.78290000      34.08930000     -27.83680000       0.15863099       0.38358282       0.23390276
H      -31.07100000      35.21950000     -26.33400000       0.19302325       0.65961692       0.21503729
H      -28.64690000      34.84080000     -26.72940000      -0.18290509      -0.08724205      -0.55000200
12
Lattice="20.0 0.0 0.0 0.0 20.0 0.0 0.0 0.0 20.0" Properties=species:S:1:pos:R:3:REF_forces:R:3 REF_energy=-6306.50242134921 config_type=Default pbc="T T T"
C     -152.91100000     171.59700000    -144.11300000      -1.53795398       0.36848330      -0.17641624
C     -153.04700000     172.68300000    -143.24600000      -0.43303403      -1.02917489      -0.59634238
C     -154.24700000     172.91800000    -142.62300000      -0.69629931       1.82904800       1.36039390
C     -155.37800000     172.17900000    -142.82700000      -1.51957419      -2.51094111      -1.64480974
C     -155.34800000     171.11700000    -143.81900000       1.78089108       1.69790127       1.00729794
C     -154.08800000     170.88800000    -144.47200000      -0.96555546      -0.08033329       1.38555379
H     -151.94300000     171.44400000    -144.55000000       0.73281401      -0.50324263      -0.65982600
H     -152.29600000     173.40700000    -143.10700000       1.70087779       0.90522530       0.33015098
H     -154.37100000     173.79700000    -141.96000000       0.32038372      -0.10247620       0.01155181
H     -156.32700000     172.36600000    -142.28900000       0.23505770       0.12888081      -0.04047693
H     -156.24300000     170.52000000    -144.01600000      -0.06884427      -0.14851962      -0.21359928
H     -154.10000000     170.04500000    -145.14300000       0.45123693      -0.55485094      -0.76347791
12
Lattice="20.0 0.0 0.0 0.0 20.0 0.0 0.0 0.0 20.0" Properties=species:S:1:pos:R:3:REF_forces:R:3 REF_energy=-6306.576431457722 config_type=Default pbc="T T T"
C     -176.69400000     196.84200000    -163.08400000      -1.18821587      -0.67598363      -0.92150465
C     -177.00400000     195.46500000    -163.33900000      -1.11119601       1.09539169       0.70642544
C     -176.04700000     194.54100000    -163.73700000       0.55530942      -0.72855750      -0.33322587
C     -174.74900000     195.02800000    -163.98100000       0.38366068       1.27044582      -0.63386706
C     -174.46800000     196.42800000    -163.95700000      -1.12447087      -0.36927155       1.49357005
C     -175.44400000     197.33100000    -163.40700000       1.13184850      -1.39696075      -0.74917266
H     -177.51400000     197.58800000    -162.90900000       0.38193022      -0.65620738       0.40493635
H     -178.06800000     195.20800000    -163.19300000       0.12830113      -0.36215700      -0.03845671
H     -176.24100000     193.44300000    -163.95600000      -0.11910933       1.06629678       0.45858581
H     -173.94400000     194.35600000    -164.30200000       0.04176582      -0.19125552      -0.09834212
H     -173.48200000     196.80100000    -164.21900000       0.47867590       0.09253580      -0.15775600
H     -175.25800000     198.37900000    -163.24600000       0.44150042       0.85572323      -0.13119259
12
Lattice="20.0 0.0 0.0 0.0 20.0 0.0 0.0 0.0 20.0" Properties=species:S:1:pos:R:3:REF_forces:R:3 REF_energy=-6306.266859934067 config_type=Default pbc="T T T"
C     -157.05000000     177.04300000    -147.26300000      -1.09586555       1.65572408      -1.84685063
C     -156.38500000     175.96600000    -146.77100000       1.42386976      -1.46429187       0.34943657
C     -157.09300000     174.79700000    -146.45100000      -1.77878360       1.59563261      -0.10031982
C     -158.53800000     174.79200000    -146.45500000       1.89900298       0.98696828       0.15944521
C     -159.20600000     175.93700000    -146.87600000       2.16256954       0.88028827      -0.46668422
C     -158.44000000     177.01700000    -147.38800000      -0.25090974      -0.76452744      -0.01432968
H     -156.51200000     177.80600000    -147.85800000       0.08186778       0.18271241       0.53981313
H     -155.26500000     176.01100000    -146.79700000      -0.57831591      -0.38422987       0.22562011
H     -156.48500000     173.97100000    -146.24300000       0.73564413      -2.00120022       0.71723020
H     -159.13400000     173.98900000    -146.08700000      -0.38049488      -1.31133803       0.34609923
H     -160.25300000     176.06300000    -146.89000000      -1.81693677      -0.28850909      -0.05132637
H     -158.91800000     177.68100000    -148.10000000      -0.40164775       0.91277097       0.14186622
12
Lattice="20.0 0.0 0.0 0.0 20.0 0.0 0.0 0.0 20.0" Properties=species:S:1:pos:R:3:REF_forces:R:3 REF_energy=-6306.668730025271 config_type=Default pbc="T T T"
C      -11.66630000      11.19940000      -9.49963000       0.19016938      -0.00908736      -0.80086587
C      -10.97810000      11.48270000     -10.71500000      -0.73236381       0.48933600      -0.10065396
C       -9.60282000      11.68980000     -10.76530000       0.52159249       0.13802715       0.66023105
C       -8.84295000      11.65730000      -9.57124000      -0.28023605      -0.34984687      -0.62766669
C       -9.51423000      11.40200000      -8.39698000      -1.58175298      -0.44282850       0.68151454
C      -10.90990000      11.13490000      -8.32182000       0.77290440       0.68391574      -1.52372225
H      -12.76970000      11.05490000      -9.54425000       0.41219252       0.04946957       0.24693913
H      -11.52110000      11.72290000     -11.65410000      -0.16139550      -0.50416746       0.28912168
H       -9.14707000      11.95050000     -11.71820000       0.28801811       0.02851461      -0.38094389
H       -7.75788000      11.75740000      -9.48893000       0.27576346       0.28749144      -0.45900834
H       -9.00841000      11.41320000      -7.45472000       0.83195277      -0.04143528       0.93922212
H      -11.36980000      11.00520000      -7.36779000      -0.53684484      -0.32938906       1.07583254
12
Lattice="20.0 0.0 0.0 0.0 20.0 0.0 0.0 0.0 20.0" Properties=species:S:1:pos:R:3:REF_forces:R:3 REF_energy=-6306.400580077907 config_type=Default pbc="T T T"