12
Lattice="20.0 0.0 0.0 0.0 20.0 0.0 0.0 0.0 20.0" Properties=species:S:1:pos:R:3:REF_forces:R:3 REF_energy=-11266.659878663757 config_type=Default pbc="T T T"
C        1.64867808       0.21976212      -0.19734953      -0.01212913      -2.48511037      -0.06945907
C        1.31143062      -1.09982994      -0.24883782       0.38385156      -1.20961521      -0.39666578
N        0.05013606      -1.53736746      -0.00100211      -1.18730909       1.60456175      -0.37897798
C       -1.10921582      -0.68100626       0.08111554       1.74490099      -0.94318141       0.90791354
N       -0.69067659       0.60239490      -0.12781859      -3.20650462       1.30938265       0.40776328
C        0.60902354       1.16192109      -0.06444682      -0.77208206      -0.87221285      -0.07576794
O       -2.21814034      -1.04143015       0.43183339      -0.02992378      -0.17741172      -0.57089920
O        0.74551607       2.33731754       0.04992432       0.25189992       3.40662844       0.34322982
H        1.96777321      -1.97553066      -0.54691684       0.01394001       1.05074593       0.62917089
H       -0.12356258      -2.48801967      -0.13683099      -0.64196054      -2.25847174      -0.09092768
H       -1.55827350       1.22407901       0.03924169       1.93416508      -0.41315395      -0.38360622
H        2.67906284       0.41869088      -0.09619504       1.52115166       0.98783854      -0.32177371
12
Lattice="20.0 0.0 0.0 0.0 20.0 0.0 0.0 0.0 20.0" Properties=species:S:1:pos:R:3:REF_forces:R:3 REF_energy=-11266.34691815722 config_type=Default pbc="T T T"
C        1.60963218       0.25512814      -0.04018865       2.59226099      -0.86084230      -0.27182443
C        1.37008118      -1.05873988      -0.02926546       0.90972642      -4.23245611       0.00754089
N        0.06362929      -1.56948010       0.09667714       0.33221933      -0.76395074      -0.58111440
C       -1.02568055      -0.70869166       0.16923019       1.22788074       1.32863435       0.05910997
N       -0.61485048       0.57185435       0.58301522       0.32157995       0.69350138      -0.28231036
C        0.51911154       1.14236236      -0.02991405       0.11869343       1.05875620       0.28681416
O       -2.13153397      -0.98021377      -0.19182280      -2.04511019      -0.89305040      -0.04806652
O        0.54248423       2.28780697      -0.45430038      -0.36947713       0.51652233       0.22197850
H        2.22868982      -1.93717235      -0.10834508      -2.04758215       2.26997444       0.12768355
H       -0.23205135      -2.46487633      -0.36189345       0.65228948       0.61489582       0.52372584
H       -1.24211386       1.36499955       0.61327816      -1.50669250      -0.16507464       0.03118892
H        2.65970008       0.55301731      -0.16652911      -0.18578843       0.43308967      -0.07472608
12
Lattice="20.0 0.0 0.0 0.0 20.0 0.0 0.0 0.0 20.0" Properties=species:S:1:pos:R:3:REF_forces:R:3 REF_energy=-11266.756202643905 config_type=Default pbc="T T T"
C        1.65701162       0.18584417      -0.15945268      -1.62604002       0.96237573       0.57925452
C        1.31579917      -1.12130792       0.00625606       1.25993813       0.69188010      -0.42263387
N        0.04894037      -1.58117174       0.07447953      -0.61736043       3.19244089      -0.94925965
C       -1.06313766      -0.69314977       0.00861006      -1.57676714      -0.79601949       1.07445530
N       -0.75748689       0.70617953      -0.07778446       0.52913117      -1.70915072      -0.42206941
C        0.54688560       1.23314867      -0.07039639       1.72142224      -2.22761861      -0.28899348
O       -2.17610817      -1.21204501       0.17326865       0.81435644       1.44789569      -0.56115231
O        0.75108559       2.41821034      -0.01654745      -0.02714344       1.55557303      -0.04735807
H        2.04207681      -1.91506865       0.01069114       0.89829864      -0.55995823       0.17709378
H       -0.10677416      -2.39374280       0.59893827      -0.72963592      -1.94796476       0.70236207
H       -1.41580469       1.44930989      -0.32337435      -0.78531301      -0.42330889       0.31349928
H        2.67494914       0.58545523      -0.16817125       0.13911324      -0.18614463      -0.15519816
12
Lattice="20.0 0.0 0.0 0.0 20.0 0.0 0.0 0.0 20.0" Properties=species:S:1:pos:R:3:REF_forces:R:3 REF_energy=-11266.484013734032 config_type=Default pbc="T T T"
C        1.66989354       0.10296253      -0.24592971       1.20252612       1.62385356      -1.79172715
C        1.28793466      -1.21613237      -0.24703065      -1.85025996       1.03767012       1.51764561
N       -0.04631291      -1.59415436       0.01290779       2.46515007      -0.90907712      -1.27152753
C       -1.07801542      -0.67542506       0.04609592       0.88734029      -0.30814064       1.37525473
N       -0.66041394       0.64816422       0.00518684       0.95179574      -0.91786366      -0.97768752
C        0.65334904       1.23332423      -0.15167418      -1.03656696       1.58171302       2.16149971
O       -2.18288932      -1.04760775       0.36229010      -1.77000293       0.09732093      -0.34615044
O        0.70742780       2.48425026       0.09922327       0.92868533      -3.60148170      -1.46264539
H        2.02558917      -1.97285119      -0.04887075       0.62697496      -0.87464321      -0.52916835
H       -0.27166132      -2.61412796       0.01713175      -0.11498832       1.02821453       0.13332872
H       -1.45952086       1.22354279       0.17028183      -0.62571883       1.32065067       0.19368670
H        2.76258029       0.32181449      -0.58543021      -1.66493546      -0.07821651       0.99749098
12
Lattice="20.0 0.0 0.0 0.0 20.0 0.0 0.0 0.0 20.0" Properties=species:S:1:pos:R:3:REF_forces:R:3 REF_energy=-11266.61134933799 config_type=Default pbc="T T T"
C        1.60380488       0.30182262      -0.21201677       0.35038639       1.76030771      -0.87538543
C        1.37207943      -1.01424874      -0.13244120      -0.13386870      -1.81769848       1.73352458
N        0.15775393      -1.54899136       0.28831108       0.69862405       1.09802677      -1.36046358
C       -1.04955894      -0.79011519       0.08554422       1.42803922      -1.89007833       0.79756724
N       -0.75874467       0.57001994      -0.08062397      -1.31827805      -0.57755327       0.17123120
C        0.54110489       1.28622811      -0.13546677      -1.58899253       1.55926554       1.02881601
O       -2.14307090      -1.34764615       0.14194243       0.43231361       1.15974548      -0.08538561
O        0.61043408       2.53305692      -0.03428497      -0.15661355      -2.70299377      -0.51972937
H        2.19961113      -1.75597676      -0.14218651      -0.15251547       0.29140060      -0.11479657
H        0.21127039      -2.51940264       0.59064687      -0.85529098      -0.19107456      -0.23515541
H       -1.73231398       0.92923373       0.02350191       0.93906132       1.34684825      -0.35857041
H        2.59989977       0.71169061      -0.36937691       0.35713471      -0.03619594      -0.18165255
12
Lattice="20.0 0.0 0.0 0.0 20.0 0.0 0.0 0.0 20.0" Properties=species:S:1:pos:R:3:REF_forces:R:3 REF_energy=-11266.565152401137 config_type=Default pbc="T T T"
C        1.69973393       0.25891971      -0.13330212       0.90304356      -1.48944626      -0.01878145
C        1.43028312      -1.11049241      -0.02650812      -1.76210074       1.27058702       0.63700386
N        0.09605261      -1.60365799       0.19254051       1.06242558       4.58165192      -1.35428193
C       -1.08840974      -0.73280457      -0.00618572      -0.23594016      -0.27027477       1.56178517
N       -0.74370828       0.54005613      -0.35654982       4.47336657      -0.41833781      -0.11234857
C        0.59479065       1.18662384      -0.12317546      -1.56919067      -1.60242043      -0.37589764
O       -2.25347963      -0.98579815       0.29612725       0.98058695      -1.19579954      -0.54977646
O        0.61742684       2.37117491       0.07574761       0.16235200       1.47875700      -0.00650674
H        2.23642795      -1.84370315       0.05635116       0.06434042      -0.30368770      -0.04415278
H       -0.02719026      -2.56101032       0.19257718      -0.64123538      -2.88897102       0.13928550
H       -1.41050825       1.24596684      -0.29400479      -2.24688414       1.47795518       0.15547481
H        2.75633631       0.68827114      -0.13480986      -1.19076404      -0.64001354      -0.03180377
12
Lattice="20.0 0.0 0.0 0.0 20.0 0.0 0.0 0.0 20.0" Properties=species:S:1:pos:R:3:REF_forces:R:3 REF_energy=-11266.663215029075 config_type=Default pbc="T T T"
C        1.63559329       0.21823850      -0.19566293      -1.03484823       1.06298345       0.80842265
C        1.39017662      -1.09625682       0.07512824      -1.14341378      -0.80705539      -0.51020914
N        0.05779027      -1.54799938       0.24572462       3.42715371       4.15118169      -0.67288494
C       -1.02221369      -0.66531926       0.05677975      -0.76724715      -4.75934955       0.87667088
N       -0.72631371       0.62366314      -0.14759728      -1.85732705       0.52800750       0.12542150
C        0.53867274       1.23655671      -0.15608615       0.17101271       0.13276004       0.37765525
O       -2.11340684      -1.25995515       0.14944007      -0.05617012       2.04602195      -0.41544548
O        0.60330662       2.45941204      -0.07821739       0.55838426      -0.51965023      -0.27817207
H        2.20507313      -1.85707390       0.03690328      -0.42818591       0.22966903       0.39341488
H       -0.20429395      -2.47501873       0.18981793      -0.62740495      -2.89496693       0.02175611
H       -1.63281391       1.11640638      -0.03759927       0.76006400       0.80950498      -0.33252036
H        2.59992132       0.67706218      -0.06553863       0.99798252       0.02089345      -0.39410918
12
Lattice="20.0 0.0 0.0 0.0 20.0 0.0 0.0 0.0 20.0" Properties=species:S:1:pos:R:3:REF_forces:R:3 REF_energy=-11266.827812338664 config_type=Default pbc="T T T"
C        1.59351195       0.22714184      -0.18629774       1.94819199       0.18640102       0.75297794
C        1.35867014      -1.06023097       0.15332427       0.48796251       0.57553732      -0.87935527
N        0.09109854      -1.54682695       0.07170069      -0.07565569      -0.45979269       0.59042452
C       -1.03828800      -0.75251961      -0.01796487      -2.64877502       1.26511818       1.33375959
N       -0.74767812       0.62689465      -0.10757556       0.02372305      -0.10066517      -0.21209755
C        0.53620344       1.21308465      -0.08976574       0.05526746      -1.87647123      -1.34734026
O       -2.19418119      -1.17511297       0.18340815       1.79316620       0.31433068      -0.75726623
O        0.72439450       2.39600482      -0.09265058      -0.15450772       2.36206210       0.30694400
H        2.17597902      -1.73502631       0.42091779      -0.00008094      -0.45656153      -0.12928854
H       -0.08291691      -2.33656060       0.66116437      -0.47308318      -1.25721574       0.15854615
H       -1.48901634       1.34333290      -0.10457168      -0.25190198      -0.61469239       0.05048685
H        2.65579914       0.57158797      -0.24487178      -0.70430675       0.06194939       0.13220880
12
Lattice="20.0 0.0 0.0 0.0 20.0 0.0 0.0 0.0 20.0" Properties=species:S:1:pos:R:3:REF_forces:R:3 REF_energy=-11266.63237357141 config_type=Default pbc="T T T"
C        1.61017874       0.16454676       0.00617177      -1.16160562       1.29689213       0.06519742
C        1.29689339      -1.13204446      -0.01316561       0.87055988      -1.11149611      -0.79453509
N        0.03276857      -1.57846737      -0.15561837      -3.41694478      -1.01912229       0.23167542
C       -1.06861178      -0.73579922       0.05839524       1.78719882       3.56055164      -0.62504571
N       -0.77720263       0.70202362      -0.14288171       2.26781883      -2.60743137      -0.00185896
C        0.54490383       1.22353335      -0.09227190       0.21407858      -4.83890139       0.20266052
O       -2.15546628      -1.06982976       0.39302632      -2.39251178      -1.45558000       0.41069248
O        0.84216756       2.35958711      -0.09715103       0.22434119       4.56711079      -0.07983090
H        1.98918593      -1.95386809      -0.11366350       0.99220191      -0.35218215       0.32747395
H       -0.32629466      -2.58120935      -0.11563417       1.20218586       1.28169732       0.06579967
H       -1.46855196       1.38954185       0.04488556      -1.48115137       0.63249137       0.23404315
H        2.59757302       0.56928465       0.12105204       0.89382857       0.04597004      -0.03627194
12
Lattice="20.0 0.0 0.0 0.0 20.0 0.0 0.0 0.0 20.0" Properties=species:S:1:pos:R:3:REF_forces:R:3 REF_energy=-11266.649445966232 config_type=Default pbc="T T T"
C        1.63987150       0.24471179      -0.31387573      -1.81833344      -2.06523447       0.75597693
C        1.35986585      -1.07259538       0.01732672       1.47030630      -0.47427350      -0.36551851
N        0.15572212      -1.50991268       0.53582674      -0.91001429       5.18562153      -1.34809380
C       -1.04632619      -0.71944002       0.10372479      -0.37270623      -0.43362456       0.43212638
N       -0.76107714       0.63279246      -0.01915494       0.98815561      -1.27711479      -0.16516746
C        0.54406884       1.19192482      -0.15849444      -0.22536716       0.52347279       0.80357812
O       -2.15579896      -1.20955682      -0.07611978       1.06090173       0.00718058       0.38664655
O        0.60713448       2.40482370      -0.07580940       0.55915585       0.83779051      -0.53318076
H        2.11091573      -1.92907653      -0.14911373      -0.65206435       1.21712237       0.40682842
H       -0.00016706      -2.44411992       0.45787643      -0.81971406      -3.96395150      -0.12279316
H       -1.48833387       1.30894083      -0.25401230      -0.39747640      -0.15799748       0.15059614
H        2.61303758       0.51534541      -0.63854372       1.11715639       0.60100862      -0.40099896
12
Lattice="20.0 0.0 0.0 0.0 20.0 0.0 0.0 0.0 20.0" Properties=species:S:1:pos:R:3:REF_forces:R:3 REF_energy=-11266.951130808051 config_type=Default pbc="T T T"
C        1.66499424       0.16001161      -0.21529203      -0.63322372       0.36972226      -0.13446756
C        1.32771631      -1.12349771      -0.02287856      -1.56150544       0.10041834      -0.21952197
N       -0.00018218      -1.50274490       0.19981247       2.01920617      -3.19313812       0.06328539
C       -1.06905617      -0.69425679       0.12444224      -4.12566627       0.91112788      -1.16586429
N       -0.71781034       0.64473416      -0.17886570       0.75257227      -0.80458970       0.57564813
C        0.60501887       1.16678933      -0.15356772       0.14784223       1.40714175       1.12657270
O       -2.27222288      -1.08474591       0.16405472       2.76634961       0.79567738       0.36171796
O        0.80763012       2.37375418       0.03522288      -0.30018688      -0.77161170      -0.63914173
H        2.02356971      -1.91315769      -0.18055572       0.83969400      -1.12372232       0.28043490
H       -0.17872325      -2.54980935       0.25465115      -0.08852046       1.63433738       0.01789457
H       -1.44572998       1.32854912      -0.00061560      -0.39589944       0.30090509      -0.11285986
H        2.69538491       0.44724642      -0.34455227       0.57933798       0.37373174      -0.15369823
12
Lattice="20.0 0.0 0.0 0.0 20.0 0.0 0.0 0.0 20.0" Properties=species:S:1:pos:R:3:REF_forces:R:3 REF_energy=-11266.758727346225 config_type=Default pbc="T T T"
C        1.70760797       0.13922077      -0.09138222      -1.78674821       1.67956283       0.97162635
C        1.34326613      -1.17464634       0.01251934       0.91731534      -0.72150512      -0.80031678
N        0.03964287      -1.54476869      -0.08907400      -2.12664763       1.02054956       0.33392228
C       -1.12346713      -0.67393469       0.05798264       2.18789887      -0.19727200       0.35544590
N       -0.74141626       0.63672056       0.16060806       1.38666451       0.86570359      -0.65964186
C        0.62344396       1.19667541      -0.05148082      -0.51139344       2.09033517      -0.70637263
O       -2.24399874      -1.11202486       0.17554717      -0.59770023      -0.33538996      -0.19253973
O        0.76379299       2.45683621      -0.20838125      -0.33763310      -4.03455574       0.74281961
H        2.05822890      -2.05521997      -0.02463143      -0.40458344       0.93157077       0.30636694
H       -0.33099326      -2.45130259       0.12332147       0.41167161      -1.35098938      -0.04101069
H       -1.53976819       1.27350760       0.18835161       0.13837451       0.46693063       0.04716010
H        2.66520649       0.61435067       0.10043793       0.72278110      -0.41494041      -0.35745954
12
Lattice="20.0 0.0 0.0 0.0 20.0 0.0 0.0 0.0 20.0" Properties=species:S:1:pos:R:3:REF_forces:R:3 REF_energy=-11266.117997093183 config_type=Default pbc="T T T"
C        1.54036806       0.20095197      -0.21038958       1.83792417      -1.17894576       1.30049887
C        1.36475378      -1.14235916      -0.02764070       0.51782737       0.40904492      -1.94603592
N        0.10273111      -1.64501102      -0.08267247      -3.51522499       0.41102606       1.40030519
C       -1.01853182      -0.79433599       0.12099186      -1.98499373       3.34525147      -0.11587833
N       -0.69796993       0.65955527       0.27987622       1.82904450      -3.62666180       0.23076016
C        0.53970549       1.20642920      -0.00296678       0.61421967       0.79809350      -0.65830581
O       -2.25533641      -0.97179070       0.11660121       2.67336206      -1.71419235      -0.11936161
O        0.75823780       2.40790171      -0.15951405      -0.45264826      -0.07263202       0.20641993
H        2.16268613      -1.86177835      -0.29718514      -0.02221001       0.08020839       0.54299153
H       -0.20083407      -2.59465947       0.10867924       0.56224256      -0.69780942      -0.12948878
H       -1.41025145       1.15065801      -0.15498886      -2.59602369       1.75183541      -0.49507156
H        2.57298992       0.51172097      -0.28766193       0.53648031       0.49478159      -0.21683362
12
Lattice="20.0 0.0 0.0 0.0 20.0 0.0 0.0 0.0 20.0" Properties=species:S:1:pos:R:3:REF_forces:R:3 REF_energy=-11266.009771149342 config_type=Default pbc="T T T"
C        1.62069589       0.24413223      -0.00718890       3.23440973       0.47333294      -0.35743568
C        1.31390817      -1.05728490       0.10120373       3.06613787      -0.26050515       0.67415579
N        0.11414349      -1.55737393       0.04549910      -4.07948530      -2.91301849      -0.63752651
C       -1.03500606      -0.76937821       0.08217792      -2.07951540       0.97506520       0.00835233
N       -0.63490946       0.62014638       0.25460715      -0.94712158      -2.10410430      -1.76975579
C        0.61193056       1.16414217      -0.19695113      -3.30398455       6.49786001       1.94068833
O       -2.21985538      -1.18436746       0.01789457       2.97612817       0.87877425       0.11126793
O        0.58474387       2.47747819      -0.27986956       1.00425282      -4.78431527      -0.63807904
H        2.02254725      -1.81121619       0.41449539       1.07049329      -0.30541116      -0.26031087
H       -0.03066561      -2.58831490      -0.16405065       0.07344238       1.37343516       0.59994547
H       -1.36689820       1.21704934      -0.10066520      -0.92182496       0.67764544       0.40178968
H        2.63979028       0.66632692       0.08371316      -0.09293252      -0.50875868      -0.07309163
12
Lattice="20.0 0.0 0.0 0.0 20.0 0.0 0.0 0.0 20.0" Properties=species:S:1:pos:R:3:REF_forces:R:3 REF_energy=-11266.372125572909 config_type=Default pbc="T T T"
C        1.70742576       0.13826216      -0.15473388      -2.61683076       1.92995660      -0.14389580
C        1.26336888      -1.11587385       0.03352599       1.27393629      -0.96206709      -0.29298605
N       -0.00646301      -1.52686711       0.01729453      -1.18561757      -0.40232940      -0.23297501
C       -1.05862113      -0.66112630       0.12058945      -3.08662035      -2.01234446      -0.83292727
N       -0.73082453       0.63224425       0.14153074       5.19522702      -0.79637497      -2.02226943
C        0.62557183       1.19838160      -0.19263360      -0.36560027       0.17958250       2.03619227
O       -2.21698310      -1.13110857       0.11571962       0.94613834       0.82654949       0.43294188
O        0.77894052       2.41624307      -0.14515049      -0.10600051      -1.10269250      -0.61017090
H        1.89278929      -1.94533294       0.23255868       1.54501721      -0.99755047       0.08111851
H       -0.36334161      -2.47513585      -0.16648941       0.64123682      -0.00459374       0.31747133
H       -1.39530960       1.18248087       0.51495275      -3.24921764       3.33963012       1.34298635
H        2.69894937       0.51816134      -0.02004581       1.00833152       0.00223388      -0.07548589
12
Lattice="20.0 0.0 0.0 0.0 20.0 0.0 0.0 0.0 20.0" Properties=species:S:1:pos:R:3:REF_forces:R:3 REF_energy=-11266.80760118476 config_type=Default pbc="T T T"
C        1.68365503       0.20703686       0.04645504       0.85007750      -1.93545675      -0.90528772
C        1.38866753      -1.13709722      -0.10406191      -0.81988560       0.48214149      -0.47390280
N        0.01768662      -1.52409766      -0.03886447       0.41451062      -2.07424248       0.07508634
C       -1.10537349      -0.71413272       0.08472387       0.12369269       2.64133409       0.67429473
N       -0.71545376       0.67808605       0.14644349      -0.40968523      -1.57183520       0.07514789
C        0.59608093       1.17501517       0.00477477      -0.48077181      -1.29774404       0.00831510
O       -2.27014126      -1.07790423       0.18439998       0.78946184      -0.31890246      -0.25093529
O        0.75896077       2.32775055      -0.26705345       0.48009124       2.88043722      -0.25457109
H        2.17898175      -1.87154738      -0.50399520      -1.24149679       0.55807382       0.90718335
H       -0.30498238      -2.52436982       0.05176996       0.86617723       0.89047935      -0.31088149
H       -1.45853455       1.39933645       0.13134236       0.25506305      -0.45911864      -0.06319288
H        2.72808329       0.50481648      -0.24401593      -0.82723474       0.20483362       0.51874386
12
Lattice="20.0 0.0 0.0 0.0 20.0 0.0 0.0 0.0 20.0" Properties=species:S:1:pos:R:3:REF_forces:R:3 REF_energy=-11266.559333838986 config_type=Default pbc="T T T"
C        1.67637592       0.20848955      -0.07458937      -0.50499977      -0.24179950      -0.25756956
C        1.36241492      -1.13581518      -0.00872564      -1.09586853       2.32279544      -0.31656157
N        0.03796558      -1.54774366       0.02072742       0.81760210      -3.13391816      -1.15607096
C       -1.03867812      -0.67842016       0.14299339      -1.15770999      -2.03196697      -0.73116264
N       -0.68681755       0.57040180       0.37403957       0.03135429       5.21931831      -0.90431909
C        0.58660981       1.18742336      -0.14240190      -1.11058558      -2.32515747       2.47574291
O       -2.19331668      -1.04519718       0.01461223      -0.78023112      -0.69951519       0.03266355
O        0.62614914       2.36953788      -0.28450097       0.27303228       2.00448167      -0.81962710
H        2.14447632      -1.84680693      -0.00344631       0.93886623      -1.44100822      -0.00745286
H       -0.21803215      -2.52927730      -0.41461304       0.51348822       2.29541839       1.38194304
H       -1.53626595       1.26815456       0.29315812       1.91599129      -1.56476292       0.36148573
H        2.68000767       0.65270329      -0.09304596       0.15906063      -0.40388538      -0.05907140
12
Lattice="20.0 0.0 0.0 0.0 20.0 0.0 0.0 0.0 20.0" Properties=species:S:1:pos:R:3:REF_forces:R:3 REF_energy=-11266.577968903186 config_type=Default pbc="T T T"
C        1.59912472       0.17033654      -0.20664808       1.40027470      -3.02676178      -0.25031057
C        1.30397158      -1.20259892      -0.08629914       0.28018370       3.38296534      -0.24425279
N        0.03433050      -1.55592910       0.17885554      -1.00250843       0.34023166      -0.13522136
C       -1.07851672      -0.59443963       0.16524830      -0.66979370      -3.60014462      -1.23997002
N       -0.69879484       0.70341950      -0.00105731      -3.44931764      -0.24059977       0.79936686
C        0.58310448       1.11624656      -0.11842705       1.09798085       6.67498747       0.96024875
O       -2.20159428      -1.10879418       0.11044265       0.61037700       1.43507669       0.59385180
O        0.79249011       2.39682677      -0.04881084      -0.37769387      -3.26153389      -0.56177025
H        2.02355773      -1.97636613      -0.22483624       0.91460581      -0.92383407      -0.02477983
H       -0.21801023      -2.53484175      -0.01875171      -0.44508587       0.38083642       0.37338398
H       -1.49574550       1.41643565       0.10017994       1.54958848      -0.93649197      -0.30563073
H        2.60177932       0.57902840      -0.37469178       0.09138904      -0.22473149       0.03508409
12
Lattice="20.0 0.0 0.0 0.0 20.0 0.0 0.0 0.0 20.0" Properties=species:S:1:pos:R:3:REF_forces:R:3 REF_energy=-11266.770029436815 config_type=Default pbc="T T T"
C        1.58488565       0.15951618      -0.30657984       3.57242849       0.75339014       0.24140720
C        1.28756556      -1.15542962      -0.16125606      -0.75921127      -1.31626416      -0.59106961
N       -0.02437441      -1.57411204      -0.04902994       2.39650455      -0.71711974       0.27403156
C       -1.02901815      -0.69377297       0.19468396      -1.20828240      -0.50682767      -1.27318759
N       -0.66923461       0.61289473       0.15483918       0.03934914       2.25982270       1.66050216
C        0.65917979       1.22444786      -0.04935156      -2.75461869       1.65850719      -0.44800479
O       -2.17429645      -1.09567649       0.23778758      -1.37804607      -0.12676875       0.83266095
O        0.71224472       2.47364641      -0.08366091       0.73741845      -2.42350108       0.29481333
H        2.01019411      -2.00390244      -0.23560098      -0.08373810       0.66609363      -0.06230241
H       -0.27040136      -2.56442865      -0.05662188      -0.08135330       0.00296993       0.06112042
H       -1.40849962       1.18144892       0.65503582       0.89108341      -0.12808912      -1.10357593
H        2.69456952       0.41536342      -0.43861136      -1.37153413      -0.12221312       0.11360460
12
Lattice="20.0 0.0 0.0 0.0 20.0 0.0 0.0 0.0 20.0" Properties=species:S:1:pos:R:3:REF_forces:R:3 REF_energy=-11266.641989611013 config_type=Default pbc="T T T"
C        1.58999756       0.15837321      -0.25128144       1.38518325      -0.08443816      -0.37490509
C        1.39635118      -1.15875888      -0.06315568      -1.76797253      -1.50450100       1.25532259
N        0.08334488      -1.57592934       0.13079283      -1.47310654       0.85228299      -0.32710777
C       -1.05552522      -0.65128064       0.07346629      -2.00556127      -3.14867064       0.37148727
N       -0.70539395       0.62878548      -0.01152638       0.33534512       1.04433015      -0.03305420
C        0.57904464       1.13896443      -0.13854694      -1.29697713       1.47052140       0.77164621
O       -2.26372200      -0.97126643       0.14500634       2.26509593      -0.41467810       0.12368975
O        0.73541988       2.35051830      -0.00649650       0.51290695       0.21413258      -0.34104634
H        2.05746901      -2.02081493       0.18305931       0.52985561       0.80823496      -0.56459908
H       -0.13339870      -2.52044388       0.46414861      -0.07051713       0.10847361      -0.30474468
H       -1.44557765       1.25652062       0.29069113      -0.23948586       0.50850208      -0.33217855
H        2.51810868       0.66287831      -0.27342526       1.82523351       0.14581014      -0.24451011
12
Lattice="20.0 0.0 0.0 0.0 20.0 0.0 0.0 0.0 20.0" Properties=species:S:1:pos:R:3:REF_forces:R:3 REF_energy=-11266.554613485663 config_type=Default pbc="T T T"
C        1.72109248       0.23047215      -0.00667396      -4.71927017       0.48018513       0.19289434
C        1.39543363      -1.06618391      -0.01894304      -0.71788331      -0.54442713       0.38816525
N        0.11657643      -1.57137931       0.12664563      -1.67532380      -0.22399414      -0.10302590
C       -1.06719548      -0.74129093       0.18150322      -1.77822367      -0.53190647      -2.05068424
N       -0.74331635       0.58089234       0.16675774       2.53652359       1.66262060       0.24725193
C        0.53953557       1.16948362      -0.05489473       1.20435942      -0.23410737       0.30916065
O       -2.26405124      -1.04513174      -0.00926784       2.13586149      -0.96600777       0.96862032
O        0.66755045       2.36805176      -0.29398039      -0.52218976      -0.35202973       0.14155121
H        2.06973522      -1.87551187      -0.08618597       1.54172563      -1.08699432      -0.27351446
H       -0.01467312      -2.56223354      -0.18311963      -0.20812262       0.92165069       0.56341683
H       -1.42442120       1.31829607       0.03765990      -1.05905959      -0.12939843       0.07028954
H        2.57234100       0.74070957      -0.23735252       3.26160279       1.00440894      -0.45412551
12
Lattice="20.0 0.0 0.0 0.0 20.0 0.0 0.0 0.0 20.0" Properties=species:S:1:pos:R:3:REF_forces:R:3 REF_energy=-11266.805623907832 config_type=Default pbc="T T T"