24
Lattice="20.0 0.0 0.0 0.0 20.0 0.0 0.0 0.0 20.0" Properties=species:S:1:pos:R:3:REF_forces:R:3 REF_energy=-15553.340330734685 config_type=Default pbc="T T T"
N        0.32695409       0.07948400       0.22861638      -0.87721786       0.77159890      -0.10846209
N       -0.41743191       0.23866396      -0.80512961       1.06798903      -0.40750252       1.99373117
C       -1.80525047       0.31001632      -0.35933744       1.30552955       0.02023859      -0.69502918
C       -2.21693718       1.01131805       0.77285147       0.13715066       0.09514907       1.24884819
C       -3.58736970       0.92133827       1.16185008       1.81569616      -1.04904782      -0.78359242
C       -4.37341452      -0.01634041       0.47863844      -0.37882901      -0.44907926      -1.60480724
C       -3.90119282      -0.84218560      -0.66011847      -1.64850226      -0.57349746       1.93100355
C       -2.61811233      -0.55959627      -1.09264662       0.16129455      -0.96950719      -1.75736004
C        1.73327316      -0.09068900       0.15046583      -1.92864621       0.94978709      -0.00749302
C        2.21719083      -1.14622435      -0.54962548       2.59237355      -1.55005642      -1.14254696
C        3.65249209      -1.17667846      -0.74031189      -1.80311729      -0.93704378      -0.30642289
C        4.48926075      -0.28491496      -0.12324330      -0.53496722       1.93497441       1.45116567
C        3.94182068       0.75294401       0.71003321      -0.49955536      -0.39190404      -0.42745001
C        2.54829076       0.83211787       0.83604316       0.26517103      -0.08825584      -0.80959749
H       -1.41559504       1.44926801       1.45234839      -0.81993810      -0.09374124      -0.87062817
H       -3.90301335       1.35441963       2.11303673      -0.40265671       0.44360584      -0.01245489
H       -5.43607847       0.06705409       0.72165063      -0.43003366      -0.82839117       0.18209365
H       -4.45189235      -1.86110592      -0.98056738       0.74536573       2.56013269       0.32783390
H       -2.18092533      -1.07230594      -2.02724816      -0.36264906       0.53991479       1.32522636
H        1.54651265      -1.95462909      -0.90323196       0.24343199       0.40120079      -0.31253543
H        4.05809528      -1.88354020      -1.45844719       0.23965077      -0.60607837      -0.13124083
H        5.55819639      -0.25113639      -0.23391399       0.88074058      -0.35999110      -0.40200951
H        4.58937219       1.52906545       1.15490367      -0.02774395      -0.19137939       0.01966282
H        1.93874736       1.64428802       1.20720789       0.25946292       0.77887347       0.89206490
24
Lattice="20.0 0.0 0.0 0.0 20.0 0.0 0.0 0.0 20.0" Properties=species:S:1:pos:R:3:REF_forces:R:3 REF_energy=-15553.653690984773 config_type=Default pbc="T T T"
N        0.38243635       0.30997355       0.30085836      -2.48469267      -0.15567865      -0.84284041
N       -0.43907986      -0.26871882      -0.51947136       1.70379964       0.86439345       1.58119386
C       -1.78177512      -0.03653891      -0.18977003       2.40155440       0.44321195      -1.13890530
C       -2.15942553       0.82865120       0.81830834       1.20793294       0.44518131       0.82528862
C       -3.48919169       0.98019478       1.08616712      -0.03104113       0.23228554       1.21652948
C       -4.37011687       0.26220867       0.34101090       0.87087284      -1.41721857      -2.19680286
C       -3.93736096      -0.52977985      -0.74850906      -2.57778552      -0.25743761      -1.19493493
C       -2.61158883      -0.65692413      -1.09007610      -2.06308132       0.84098305       2.30202916
C        1.70765765       0.10066466       0.07745618       0.71499298       0.37203312       2.76905240
C        2.15628636      -0.72796353      -0.90787905       2.19292131      -0.96883305      -1.85062321
C        3.56496737      -0.87780858      -1.10108940      -0.39357907       0.26347076       0.09411765
C        4.45910848      -0.29315139      -0.20659992      -0.44091801       0.27000342       1.84619618
C        3.93026671       0.32501103       0.99479680       0.58754458       0.26418182      -1.24269497
C        2.56361944       0.59344356       1.13819324       0.80412777       0.10896556      -1.96004884
H       -1.30551343       1.24279046       1.37790473      -0.28782528       0.22947630       0.14738437
H       -3.89673599       1.46270603       1.96199772       0.08540217       0.79546506       0.59111039
H       -5.36260805       0.19285251       0.62658614      -2.65683738       0.11296712       0.51093059
H       -4.73537138      -1.00232155      -1.39813469       0.58964897       0.12956807       0.65569989
H       -2.20117333      -1.34839111      -1.73492459       0.91379376      -1.56460979      -2.18753989
H        1.36481961      -1.16193682      -1.52935492       0.17884213      -0.19832271      -0.33369473
H        4.10652207      -1.38673430      -1.90402669      -0.70668528      -0.41625018      -0.60509205
H        5.55814140      -0.36016089      -0.39966595      -0.53690917       0.03180552       0.29788832
H        4.62989249       0.76015683       1.70782439       0.31177366       0.09677267       0.32772211
H        2.24252876       1.40895838       1.80383527      -0.38385222      -0.52241416       0.38803423
24
Lattice="20.0 0.0 0.0 0.0 20.0 0.0 0.0 0.0 20.0" Properties=species:S:1:pos:R:3:REF_forces:R:3 REF_energy=-15553.598611082556 config_type=Default pbc="T T T"
N        0.36136088       0.28567601       0.64798388       2.17016000      -1.50109002      -1.92849503
N       -0.39820812      -0.31490644      -0.16984593       0.28909612       0.30137160       0.63133900
C       -1.79182965      -0.10856644      -0.03967445       0.45099010       0.64142945       0.99857609
C       -2.37076036       0.88333823       0.79636407       0.86176476       0.80856545       0.25548147
C       -3.74501937       1.11167884       0.86275683      -0.28099329       0.42566304      -0.65623139
C       -4.61075287       0.39924669      -0.00110742       2.79400300      -0.95961441       0.25417807
C       -3.99425964      -0.53911607      -0.85557664      -0.41423701      -0.90753770      -0.36841784
C       -2.60292261      -0.88640853      -0.83449123      -1.93675202      -0.10415621      -0.88154683
C        1.87818168      -0.01778483       0.20997806      -3.03602130       0.35212183       0.95073902
C        2.23387409      -0.68450654      -0.97630074      -1.00517266       0.77721413       1.01792626
C        3.57001233      -0.72184967      -1.29558571       0.24745047       0.17139662      -0.16573295
C        4.48226824      -0.17996443      -0.38368253       3.69469642       1.12611910      -0.79005921
C        4.22102187       0.32172170       0.90332565      -3.29860169      -0.32126520      -1.56880727
C        2.77686601       0.42594700       1.14083076       3.14000946      -0.47239952       1.58281273
H       -1.61650349       1.52464269       1.30957161      -0.50856296      -0.19742251       0.08444145
H       -4.19482730       1.97081922       1.38569510       0.31213629      -0.12361689       0.54015802
H       -5.66565469       0.41421221       0.12835093      -1.41039605       0.44477904      -0.29904274
H       -4.69410619      -1.02750532      -1.55909243       0.31074280      -0.38784911       0.05341194
H       -2.16117149      -1.72434607      -1.42223870      -0.31006403       0.51180482       0.01845605
H        1.35744877      -1.04832650      -1.48390465      -0.40055992      -0.46237644      -1.07353727
H        3.95952866      -1.04633567      -2.27049024      -0.15622028      -0.25893708      -0.02830970
H        5.54539811       0.00753560      -0.85430158      -1.42875542      -0.69005585       1.10488457
H        4.97622903       0.69684322       1.58655735       0.27771457       0.08633096       0.27681257
H        2.44946608       0.59412454       2.17416320      -0.36242743       0.73952490      -0.00903696
24
Lattice="20.0 0.0 0.0 0.0 20.0 0.0 0.0 0.0 20.0" Properties=species:S:1:pos:R:3:REF_forces:R:3 REF_energy=-15552.730564558946 config_type=Default pbc="T T T"
N        0.33243789       0.41292292       0.65561278       0.77186362      -2.18141084      -1.57913606
N       -0.40195541      -0.54517751       0.12130453       1.57934318       2.04177130       0.31424516
C       -1.79912203      -0.24231114       0.05962129       1.60943162      -0.76123581       0.49582068
C       -2.22194185       0.99605998       0.62144608       2.84866106       1.12402921      -0.04557177
C       -3.51492170       1.28568716       0.52823056      -3.38412023      -0.53507119       0.09571034
C       -4.46179151       0.36124437      -0.08911949      -0.65614536       4.56498357       0.20879219
C       -3.99063145      -0.67973720      -0.78560303       0.89684036      -3.97449199      -1.08377242
C       -2.63911272      -1.17760297      -0.62709523      -1.26594932       4.24979687       1.58274697
C        1.81248371       0.21492723       0.29040287      -3.25957178      -1.04144440       2.18840394
C        2.07933038      -0.22124849      -0.96903897       2.07853628       0.01469231      -2.56560106
C        3.43201181      -0.42429822      -1.39129562      -0.92189972       0.03047277      -0.46198177
C        4.43858346      -0.27538344      -0.49085017       1.72492485      -0.70302974       0.90045004
C        4.11728194      -0.01080992       0.82632044      -1.14430138       1.00374112       1.24017092
C        2.80100364       0.24096938       1.27618569       0.12488048       0.88821102      -0.32065065
H       -1.49036806       1.87495636       0.98072773      -1.15113264      -2.41665259      -0.60385519
H       -3.81427814       2.22209172       0.97528058      -0.77965843       0.65264722       0.09299299
H       -5.47642084       0.80100903      -0.37543066       0.78454728      -0.72781872       0.72780170
H       -4.72890434      -1.24382282      -1.40211257       0.42702912      -0.01784814       0.13222643
H       -2.23925332      -2.06531228      -1.01250568       0.67861845      -1.65122629      -0.85768586
H        1.26465273      -0.21581270      -1.65898954      -0.83756487      -0.35771223      -0.88394695
H        3.96929546      -0.66162658      -2.31091767      -1.49627922      -0.23718848      -1.31015054
H        5.49777519      -0.50189065      -0.83088592      -0.84717580       0.48528738       0.56460561
H        4.88412352       0.21408265       1.51031282       1.54254016      -0.05575679       1.38647466
H        2.46580079       0.60987132       2.27517466       0.67658229      -0.39474558      -0.21808935
24
Lattice="20.0 0.0 0.0 0.0 20.0 0.0 0.0 0.0 20.0" Properties=species:S:1:pos:R:3:REF_forces:R:3 REF_energy=-15553.843286483763 config_type=Default pbc="T T T"
N        0.32702824       0.47075205       0.31033368       2.69081060       0.79859085      -0.15952908
N       -0.40188198      -0.24290742      -0.40307773       0.35376672      -0.83955989      -1.22892800
C       -1.75786954      -0.06687125      -0.22268150       0.59818941       1.53525417       3.92062959
C       -2.23046022       0.58969537       1.00510233      -0.10851063      -1.11592663      -2.35723162
C       -3.56853260       0.68010922       1.21467759      -2.96975220       0.02828933      -0.96378258
C       -4.53451183       0.25927370       0.18415039       0.85579790      -0.21956532      -0.18072865
C       -4.00181583      -0.35647370      -0.96693826      -1.53104609       0.65283435       0.91411016
C       -2.65950535      -0.57280897      -1.09005923       0.39758361      -1.43153849      -2.42158628
C        1.77823446       0.19995702       0.06166429      -1.62216043       1.20332532       0.81566251
C        2.17020396      -1.07540200      -0.26216636      -0.76538793      -0.63090824      -0.34909533
C        3.48573693      -1.41439328      -0.34003428       2.02743524      -0.07457906      -0.36096570
C        4.50448051      -0.49205901      -0.14167804      -0.12501824       2.42624244       1.52368204
C        4.12586439       0.86314382       0.28499346       1.38317444      -1.91199472      -0.05227109
C        2.76026566       1.17965590       0.33837292       0.38655564       0.04226734       0.13745596
H       -1.61258057       1.01070904       1.75919274       1.31712409       0.23637678       0.62907535
H       -3.87181106       1.15992085       2.15318811      -0.49460696      -0.00963027       0.07106879
H       -5.65038424       0.31305602       0.11779978       0.56524581       0.44532360       1.00075782
H       -4.61460656      -0.66172901      -1.81701742      -0.54965608      -0.15970273       0.03261712
H       -2.35476702      -1.18195565      -1.96354826       0.45739487       0.31549744       0.15419548
H        1.42617596      -1.82443190      -0.47045606      -0.77406119      -0.51004248       0.00556371
H        3.82720044      -2.41598766      -0.52549515      -0.11629542      -1.08869392      -0.34736436
H        5.57265490      -0.79055401      -0.09920471      -0.31690497       0.05141862      -0.18368963
H        4.96943648       1.48715662       0.74680537      -1.20008228      -0.18711779      -0.93265748
H        2.48984357       2.19436662       0.60862269      -0.45959589       0.44383940       0.33301133
24
Lattice="20.0 0.0 0.0 0.0 20.0 0.0 0.0 0.0 20.0" Properties=species:S:1:pos:R:3:REF_forces:R:3 REF_energy=-15553.081603913699 config_type=Default pbc="T T T"
N        0.46139103       0.53456446       0.20834121      -2.00435224       0.42380280       0.23516476
N       -0.37408939      -0.32764579      -0.21762340      -0.73438249       1.01258022       0.42723455
C       -1.79787660      -0.01119132      -0.01808260       3.10999729      -1.79155206      -1.80915003
C       -2.31820693       0.66334813       1.08392883      -0.29980821      -1.09387567       0.33155743
C       -3.69320048       0.77498769       1.16795741      -1.29532798      -0.10808244      -3.63540134
C       -4.53950276       0.34486333       0.07845265       1.94522597      -2.18630782      -0.03020157
C       -3.96721915      -0.52737663      -0.94248051       0.13019665       1.46507904       0.05951631
C       -2.52356056      -0.62913488      -1.08936468      -3.37377051       1.27587362       1.39954893
C        1.77849113       0.20757134       0.03917141       2.30646210      -0.27516311       0.20665334
C        2.17877901      -1.02008237      -0.58346627       2.97303015       2.87679988       2.09591688
C        3.54859691      -1.39201730      -0.62861787      -3.04575822       1.48851460      -0.66468991
C        4.44393060      -0.46423733      -0.16636969       1.19968196      -0.84820203       1.02739435
C        4.03464446       0.69173643       0.50577591       4.60105013       0.73156358       0.60597574
C        2.78001540       1.12442783       0.59681054      -4.18651678      -0.64657119      -0.99956509
H       -1.78473866       0.92349649       2.00079222       0.84488022       0.34880043      -0.29025924
H       -4.03713475       1.60123459       1.69578657      -1.23471890       1.39582134       2.27155958
H       -5.62799676       0.46958584       0.02354837      -0.08654426       0.31411547       0.35840663
H       -4.72361031      -0.91350347      -1.68671640       0.91684308       0.09155421       0.27556096
H       -2.09947931      -0.96208961      -2.05108275       0.36269863      -0.38101573       0.52860183
H        1.38947875      -1.53316916      -0.95509014      -2.65797828      -2.41182020      -1.48247729
H        3.73235502      -2.24102501      -1.22697813       0.99216298      -1.58178203      -0.58759955
H        5.49956672      -0.75833730      -0.12721453       0.30948733       0.26309764      -0.18339905
H        4.90407948       1.26226283       0.96622262      -0.92535225      -0.14389559      -0.42794968
H        2.42931387       2.10147745       0.96924128       0.15279367      -0.21933500       0.28760149
24
Lattice="20.0 0.0 0.0 0.0 20.0 0.0 0.0 0.0 20.0" Properties=species:S:1:pos:R:3:REF_forces:R:3 REF_energy=-15553.519456928569 config_type=Default pbc="T T T"
N        0.34758602       0.05639947       0.54101461       1.58298155       0.47467161      -0.65630852
N       -0.45649267      -0.47168728      -0.27757125      -0.44927646       1.00600606       0.50789818
C       -1.85559805      -0.05372602      -0.05734983       1.87917721      -3.03022156      -2.12325275
C       -2.28272430       1.03815451       0.57476259      -0.48776948       4.52863418       2.35318074
C       -3.66618555       1.40942976       0.58519895       0.98207968      -1.13870465       0.56983806
C       -4.48564673       0.38044593       0.13155501      -3.06742691       1.33800741       0.19542672
C       -4.09479477      -0.72873180      -0.58234655       1.07521836       1.88934911       1.19596949
C       -2.77605352      -0.86467190      -0.74764169       1.81733308       0.82263483       1.14118700
C        1.80650544      -0.04230742       0.19950526      -1.52236615      -0.59405728       0.59882149
C        2.30810949      -0.70917709      -0.96050302       0.09388537       1.04008320       0.20201075
C        3.67972447      -0.73668701      -1.21002176       1.83170338       0.11434631       0.82147742
C        4.65750041      -0.30487269      -0.20045826      -4.05938349       1.02326264      -0.43595470
C        4.10511905       0.45886472       0.88821555       0.43020073      -1.86231982      -0.96263721
C        2.69817997       0.57195555       1.10851765       1.35885757      -0.20540142      -0.51064062
H       -1.52586810       1.69363438       1.08924339      -0.40573560      -0.38019030      -0.39265830
H       -4.08657888       2.32566647       1.06974352       0.43810821      -0.51326207      -0.24743890
H       -5.58668919       0.43275982       0.23673590       0.03240541       0.51468023       0.20285237
H       -4.75543394      -1.42915373      -0.90298471      -2.47106716      -2.32169666      -1.31831389
H       -2.32502345      -1.60686140      -1.28234192       1.24576621      -2.69986428      -1.90705990
H        1.60450945      -1.03719871      -1.73092877      -0.25004893      -0.18745707      -0.00421090
H        4.07224405      -1.04588996      -2.20585588      -0.23900255      -0.31419086       0.40991766
H        5.71130917      -0.45097270      -0.31884216       1.01464116      -0.05643756      -0.20013528
H        4.86761121       0.75832834       1.61021798      -0.19098061       0.59515643       0.50973508
H        2.41559902       1.14167693       1.99863057      -0.63930047      -0.04302854       0.05029602
24
Lattice="20.0 0.0 0.0 0.0 20.0 0.0 0.0 0.0 20.0" Properties=species:S:1:pos:R:3:REF_forces:R:3 REF_energy=-15553.23613015389 config_type=Default pbc="T T T"
N        0.39658399       0.50187543      -0.27968864      -1.36080415       0.24737313       0.86903841
N       -0.39029924      -0.22180653      -0.97390284      -0.79869750       0.43956227       1.48710270
C       -1.80086078      -0.10327776      -0.39628413       3.40538916       0.46924108      -1.51311944
C       -1.98618330      -0.13773682       0.96325139       1.08106525      -0.16949499       2.16040077
C       -3.29293601      -0.01051578       1.44697388      -2.10176234      -0.75815249       0.30685905
C       -4.40600488       0.12966688       0.55198096       1.85959954       0.52435612      -0.79406545
C       -4.10784999       0.25186290      -0.85502433      -3.55158846       0.62200672       0.57199542
C       -2.81714795       0.14529019      -1.28149583       0.20546904      -0.06408001      -1.75338784
C        1.74181732       0.26239372      -0.12814147       1.49217739       0.62678799      -0.88090611
C        2.25558184      -1.00579330      -0.44097547      -4.19005235      -1.07919513      -1.37741055
C        3.48683516      -1.43191086      -0.15579493       3.37985842      -1.39268686      -0.69860096
C        4.35468821      -0.50567596       0.39654987       1.95794871       1.71561854       1.20803995
C        3.93799305       0.86406859       0.70697386       1.04618104      -1.04672940       2.16618451
C        2.63546560       1.26879147       0.43370606      -1.34353739      -2.10546637      -0.72583897
H       -1.04532159      -0.21816754       1.62983848      -1.41827628       0.01163717      -0.75745793
H       -3.64325737      -0.18278350       2.50712369       0.95447221       0.39952752      -0.50314143
H       -5.39926980       0.29757868       0.98474422      -0.21949003      -0.22340037      -0.19923931
H       -4.96880000       0.50184953      -1.61629737       1.45116711      -0.46989203       1.30155925
H       -2.54584884       0.32614051      -2.33138695      -0.06394940      -0.22107394      -0.13387688
H        1.49725262      -1.71192303      -0.91145064       0.65474884       0.60510110       0.41882946
H        3.91289236      -2.42915531      -0.51965754      -0.73580467       0.89643958       0.63911314
H        5.43578924      -0.81524620       0.63464633      -1.31200713       0.43746430      -0.12017542
H        4.52352945       1.40112595       1.57553813      -0.52093501      -0.40303790      -2.09076141
H        2.12904142       2.18977304       0.67125636       0.12882800       0.93809402       0.41885903
24
Lattice="20.0 0.0 0.0 0.0 20.0 0.0 0.0 0.0 20.0" Properties=species:S:1:pos:R:3:REF_forces:R:3 REF_energy=-15553.31434100984 config_type=Default pbc="T T T"
N        0.33279414      -0.20288527      -0.54400467       0.67007159       0.08047342       0.90865808
N       -0.36259859       0.50791737       0.23785006      -1.07477304      -0.81546048      -0.62272868
C       -1.77050725       0.22512828       0.08176447       2.49121890       1.26274413       0.12927039
C       -2.54757967       1.31011115       0.36422003      -1.03790116       1.47667436       0.59987626
C       -3.94272857       1.24688602       0.39021992       0.57795210      -0.64571944       0.28511225
C       -4.51921808       0.01561404       0.10519611       1.07522190      -1.29764917      -0.56835551
C       -3.63415205      -1.12111103      -0.19409490      -2.98516360      -0.13810495      -1.54461535
C       -2.27337833      -1.00169825      -0.28637030       2.28871743      -1.92452067       0.36693051
C        1.70615318      -0.15633122      -0.20584192       0.25593558       0.40489213      -3.29750501
C        2.61845349      -0.37942885      -1.33674741       0.42449211       0.42575493      -0.56243086
C        4.01637383      -0.40713621      -1.11695054      -1.55863583       0.00376291       1.40139030
C        4.50170051      -0.29647009       0.25022772      -0.17089634       0.52841126      -2.69447149
C        3.62097243       0.00286454       1.25997825      -2.22767651       0.29786240      -1.97132184
C        2.22559615       0.20496304       1.02037812       1.62185478      -1.35964880       1.53215984
H       -2.01570627       2.23302690       0.57494494       0.17488340       0.47888750       0.29113511
H       -4.52616308       2.08021528       0.76133970      -0.41415144       0.59551140      -0.18323748
H       -5.61564225      -0.01070052       0.03747167      -0.04225695      -0.61125257       0.11217162
H       -4.08127098      -2.04003998      -0.66865064      -0.01887719       0.39449870       0.84564116
H       -1.41318470      -1.81220608      -0.47719918      -2.21554409       1.27104241       0.06919790
H        2.33851502      -0.33106993      -2.48341108      -0.28833194      -0.43460631       2.29370213
H        4.60534867      -0.50725006      -2.03494818       0.68005508       0.01197887       0.26528467
H        5.55750224      -0.13248632       0.34550924       1.15021491      -0.48730904       0.52387383
H        3.82944711       0.14273221       2.26218922       1.46445056       0.37718777       2.49484832
H        1.71524599       0.38830549       1.98172635      -0.84086015       0.10458934      -0.67458624
24
Lattice="20.0 0.0 0.0 0.0 20.0 0.0 0.0 0.0 20.0" Properties=species:S:1:pos:R:3:REF_forces:R:3 REF_energy=-15553.834188242421 config_type=Default pbc="T T T"
N        0.34039063       0.33212977       0.37557572       1.72582597       0.45263844       1.29812899
N       -0.39938862      -0.04765563      -0.54107184      -0.04921765      -0.82892617      -1.34891033
C       -1.77426686       0.04996982      -0.32682799      -0.28505990       0.53546776       1.50947011
C       -2.34601669       0.84763405       0.72212836       3.30404317       0.62915994       0.59338093
C       -3.65952674       0.95999775       0.96875442      -1.55049556      -1.24908607      -1.21571881
C       -4.42939256       0.09835019       0.15816635      -1.23327620       0.42334031      -0.15550417
C       -3.93737122      -0.82887984      -0.76135828       0.57940750       0.27759023       0.12931646
C       -2.58498346      -0.82770135      -1.04987994       1.79606759      -0.53929202      -0.66170599
C        1.77378815       0.10222321       0.17157714      -2.48669617       1.20082543       1.01372929
C        2.25200438      -0.64445693      -0.86791870       0.07887198      -1.30674424      -1.66186721
C        3.64262586      -0.76435850      -1.03054499      -0.80632689      -0.58561352       0.87632949
C        4.49593808      -0.39949186       0.01347062      -0.28178596       0.87474261       0.02572600
C        3.99459634       0.45170505       1.03196700       1.33576279      -1.24356231       0.82933261
C        2.61573743       0.69448861       1.11109565       1.01688733       1.79252671       0.90644837
H       -1.72173864       1.39743936       1.46059335       0.56138653      -0.15581893      -0.79272138
H       -4.02510991       1.64609296       1.73138331      -0.47106384       0.07456657       0.12327966
H       -5.48731248       0.25391371       0.10065709      -1.36156982      -0.16237483       0.48962818
H       -4.54288978      -1.55439736      -1.27095730      -0.98655258      -0.32724918      -0.40229012
H       -1.99321993      -1.50815950      -1.75591565      -1.09287114       0.62983393       0.57929288
H        1.46385548      -1.20082370      -1.47003199       0.92291839       0.77906230       0.09691362
H        4.05628100      -1.29737549      -1.85418273       0.37461703      -0.83575908      -1.08159022
H        5.52514375      -0.78759401       0.00064826       0.17267781       0.39486899       0.03229552
H        4.74883031       0.69585340       1.85200927      -1.05785883       0.28188747      -0.71410363
H        2.28204884       1.50625643       1.83026940      -0.20569144      -1.11208438      -0.46886030
24
Lattice="20.0 0.0 0.0 0.0 20.0 0.0 0.0 0.0 20.0" Properties=species:S:1:pos:R:3:REF_forces:R:3 REF_energy=-15553.381795582734 config_type=Default pbc="T T T"
N        0.43374458      -0.30317679      -0.60816020      -2.11620530      -0.25646265      -0.35692223
N       -0.33842679       0.46101121       0.09153632       1.69023347      -0.23838250      -0.20883518
C       -1.69351231       0.39398419      -0.14335997      -3.70148959       0.84578340       1.41371709
C       -2.63410380       1.36658214       0.53049631       1.25992769      -0.10804140       0.36859062
C       -4.00782676       1.11079377       0.79224697       2.33545988      -0.21404814      -1.92086569
C       -4.50277409      -0.07980888       0.20909194      -2.90289807       1.79168149       3.00253942
C       -3.74304414      -1.00913135      -0.39829946       0.20874642      -1.01197662      -1.75579624
C       -2.39234214      -0.73159435      -0.64242583       1.36328146      -1.94542451      -0.70133445
C        1.74362913      -0.44413612      -0.24363400       1.19193230       2.49315926       2.13682550
C        2.70013334      -0.50435667      -1.24594416      -0.23451669      -0.42175363      -1.68024638
C        4.08554200      -0.34193263      -1.03785242      -1.11670907      -0.06065536       2.32551927
C        4.55000762      -0.04727119       0.27498052      -3.08751340       0.12777220      -0.41884468
C        3.57531647       0.18393783       1.31769802       1.70775343      -0.58141898      -1.31348762
C        2.25367685      -0.05169029       1.04708845      -2.71860345      -0.78342227       2.68451062
H       -2.22355752       2.31442692       0.96386487       0.15607069      -0.53288935      -0.28806706
H       -4.60184207       1.88045336       1.29468674      -0.24278500      -0.12060983       0.13005066
H       -5.55279576      -0.32448276       0.49574763       0.18439751      -0.01458947      -0.46924185
H       -4.35938306      -1.88107627      -0.75643110       1.21552304       0.14933959       0.01684181
H       -1.78408126      -1.55023628      -1.11939540      -0.19466439       0.60677329       0.26814703
H        2.17761866      -0.62088697      -2.22613345       0.87489055      -0.12234034      -0.05223160
H        4.75551540      -0.53286022      -1.82546251       1.23391903      -0.14294259      -1.43487578
H        5.55624795      -0.02736304       0.57319854       2.03936634       0.18750212       0.07864079
H        3.95718272       0.47957852       2.30259090      -0.21898342      -0.08106431       0.22524200
H        1.52862352      -0.08838493       1.99453175       1.07286657       0.43401064      -2.04987598
24
Lattice="20.0 0.0 0.0 0.0 20.0 0.0 0.0 0.0 20.0" Properties=species:S:1:pos:R:3:REF_forces:R:3 REF_energy=-15553.382023298613 config_type=Default pbc="T T T"
N        0.34055212      -0.35605596       0.50694310       1.05361039       0.48154201      -0.34368614
N       -0.37854981       0.41903299      -0.18034799      -0.18891160       0.53442944      -0.62385560
C       -1.82101941       0.30853403      -0.10141905       2.57366343      -2.91632025       1.31091858