9
Lattice="20.0 0.0 0.0 0.0 20.0 0.0 0.0 0.0 20.0" Properties=species:S:1:pos:R:3:REF_forces:R:3 REF_energy=-4209.751219273151 config_type=Default pbc="T T T"
C       -0.43340814       0.03062032       0.35333605       1.78547202      -1.56765531      -1.31963513
C       -0.30830508       1.05794633      -0.79282567       0.10665872      -1.14195201       0.37121937
O        0.67519025      -0.95807828       0.44780524      -0.37289547       1.41646509       0.46878054
H       -0.26814642       0.41765069       1.36698298      -1.00629156       0.75078818       0.14591905
H       -1.40725298      -0.44700654       0.10016273      -0.12597418      -0.23859369       1.00105458
H       -0.99004698       1.86959381      -0.58029420      -0.93553670       0.61757270      -0.12643641
H        0.65371317       1.52911066      -0.84647450       1.33513498       0.35517013       0.05242181
H       -0.50152227       0.59156073      -1.78938383      -0.16405181       0.16836432       0.29659983
H        0.63304345      -1.72593699      -0.12217316      -0.62251600      -0.36015941      -0.88992369
9
Lattice="20.0 0.0 0.0 0.0 20.0 0.0 0.0 0.0 20.0" Properties=species:S:1:pos:R:3:REF_forces:R:3 REF_energy=-4209.447814401517 config_type=Default pbc="T T T"
C        0.14574848      -0.14152083      -0.49127897      -1.37216272      -3.02011245      -1.54501073
C       -0.35018495       1.18024403      -0.22358112      -0.65626296       3.31837938       0.20454627
O        0.13547944      -0.93781880       0.62310215      -0.13501994      -1.86213321       3.53003398
H       -0.50569017      -0.71460383      -1.18925127      -0.21688360       0.35394937      -0.62080262
H        1.10741372      -0.32288706      -0.86406221       2.30925704       1.02564492      -1.66370627
H       -0.21391545       1.99709045      -0.98432813      -0.00415686      -0.71684695      -0.17073076
H       -1.42003953       1.27660827       0.11951612       0.58236972      -0.50825741      -0.12594544
H        0.29496597       1.49746205       0.58630727       0.20673299       0.74533595       1.04450884
H        1.02184435      -1.22634482       0.95942460      -0.71387372       0.66404040      -0.65289323
9
Lattice="20.0 0.0 0.0 0.0 20.0 0.0 0.0 0.0 20.0" Properties=species:S:1:pos:R:3:REF_forces:R:3 REF_energy=-4209.825038463248 config_type=Default pbc="T T T"
C       -0.01556197      -0.09581240       0.49545420       1.81465836      -0.77023981       1.66397994
C       -1.16598175       0.55500580      -0.11060770      -2.63563663       0.21560062      -2.17498607
O        1.07603675      -0.41353866      -0.39382949      -1.63474521       0.99688883      -0.20325105
H        0.23358927       0.63122902       1.35961498       0.53370172      -0.59815002      -0.75131125
H       -0.31554947      -1.02258532       1.05817822      -0.15880408       0.06296020      -0.26397007
H       -2.00445414       0.55802552       0.61278129       0.18841856       0.63149964       0.38993185
H       -0.97565082       1.54727108      -0.56054563       0.18040700       0.34088518       0.52410143
H       -1.73451065       0.07842438      -0.96600188       0.90190878      -0.54642816       0.19943342
H        1.79463895      -0.70140281       0.16150833       0.81009150      -0.33301653       0.61607174
9
Lattice="20.0 0.0 0.0 0.0 20.0 0.0 0.0 0.0 20.0" Properties=species:S:1:pos:R:3:REF_forces:R:3 REF_energy=-4209.6575699881405 config_type=Default pbc="T T T"
C        0.14366395      -0.07231369      -0.62382159      -1.23083355       0.24574984       2.12783250
C       -0.37423153       1.13941421       0.06235459      -1.50998814       1.55220519       0.93247596
O        0.25707008      -0.96770712       0.51651346       0.23284146      -0.88803521      -1.51920303
H       -0.56746176      -0.35232375      -1.45297812       0.46810753      -0.36478935       0.43677622
H        1.06124846       0.31494319      -1.02994560       1.60930708      -0.73718247      -0.71743815
H       -1.45069597       1.02256523       0.38363409       0.52976675       0.01723256      -0.13415708
H        0.18619421       1.46955732       0.99912049      -0.13203360      -0.58303173      -0.92416476
H       -0.33589692       1.95514105      -0.65301443      -0.14580021       1.03908330      -0.37885405
H       -0.22748145      -1.76627644       0.24486591       0.17863274      -0.28123209       0.17673238
9
Lattice="20.0 0.0 0.0 0.0 20.0 0.0 0.0 0.0 20.0" Properties=species:S:1:pos:R:3:REF_forces:R:3 REF_energy=-4209.65082463832 config_type=Default pbc="T T T"
C       -0.37543642      -0.40200487      -0.21752924       1.97040519       0.84260140       0.56032678
C       -0.84361625       0.72121809       0.69229031       3.26493186       1.12069222       0.37714792
O        1.10777526      -0.32274302      -0.38210858      -1.47180993      -0.60335326       2.70299824
H       -0.72879912      -1.37680003       0.18747846       0.22428298      -0.20636512      -0.41791029
H       -0.66621669      -0.17082859      -1.24590188      -1.26794028      -0.41880627      -0.27980446
H       -1.87136734       0.70254271       0.84022724      -2.82227367       0.00501345       0.14979463
H       -0.40002340       0.74270563       1.77087643      -0.21400839      -0.28840706      -1.57344081
H       -0.53864104       1.68473163       0.16540959      -0.36527518      -0.54609474       0.74337065
H        1.14627373      -0.26460588      -1.31003451       0.68168742       0.09471939      -2.26248261
9
Lattice="20.0 0.0 0.0 0.0 20.0 0.0 0.0 0.0 20.0" Properties=species:S:1:pos:R:3:REF_forces:R:3 REF_energy=-4209.697172241529 config_type=Default pbc="T T T"
C       -0.02922579      -0.39533321       0.23920973       1.01808423      -2.26647121       1.46777022
C       -1.32380593       0.16491901      -0.23824913       1.41150599       1.73194361      -0.91762475
O        1.25114278       0.18933133      -0.01812133      -0.95236565       0.44684831      -0.00474482
H       -0.21320587      -0.60824934       1.35199045       0.66936140       0.02666105      -0.55098087
H        0.13606866      -1.39567452      -0.24762748      -0.44013768       0.17589883       0.32123018
H       -1.74774765       0.97245071       0.39819160       0.09635877       0.17209442      -0.57707361
H       -1.16527889       0.33302393      -1.31064081      -0.08131787       1.41198021      -0.46523324
H       -2.02557428      -0.59384208      -0.37706853      -1.81412516      -2.07752995       0.60430200
H        1.27774491       1.03110118       0.46135472       0.09263587       0.37857478       0.12235484
9
Lattice="20.0 0.0 0.0 0.0 20.0 0.0 0.0 0.0 20.0" Properties=species:S:1:pos:R:3:REF_forces:R:3 REF_energy=-4209.610555482792 config_type=Default pbc="T T T"
C        0.35508948       0.31001209       0.28926245       0.40412362      -2.05841179      -0.00152405
C       -0.78162702       0.94213746      -0.49563284       0.70509963       1.56488896       1.50286428
O        0.44926294      -1.12090452       0.14098671      -1.76060518      -1.15548203       0.31932921
H        1.34198772       0.63239308      -0.01583472       0.75391084       0.61969314      -0.36438882
H        0.33095851       0.37424174       1.38283371      -0.36498562       1.25761164       0.53083782
H       -1.44581752       1.28760388       0.28095411      -0.98563125       0.68593910       0.64350890
H       -0.52666110       1.87113465      -1.06260485       0.02162581      -0.63538813      -0.24364354
H       -1.38097354       0.21573682      -0.98689270      -0.42218799      -1.05969609      -1.39554027
H       -0.36913993      -1.51080540       0.62273816       1.64865015       0.78084525      -0.99144354
9
Lattice="20.0 0.0 0.0 0.0 20.0 0.0 0.0 0.0 20.0" Properties=species:S:1:pos:R:3:REF_forces:R:3 REF_energy=-4209.65104119628 config_type=Default pbc="T T T"
C        0.20085276       0.44600023       0.40349373      -0.94884699      -1.52796468      -2.76222772
C       -1.29623957       0.22671472      -0.07529127       2.94920255      -2.40868844       1.11445498
O        1.00558903      -0.59246151      -0.22934826       0.01132576       0.93463990      -0.69447521
H        0.55190600       1.44347403       0.15677246       0.36980834       0.86998380      -0.13982548
H        0.38086765       0.24423753       1.41911675      -0.11211403      -0.07815356       2.19166728
H       -1.92345262      -0.02954963       0.76143385      -1.00936063       0.26317143       0.62650975
H       -1.64983973       0.90452136      -0.78243296      -1.07220112       1.96409432      -1.23857175
H       -1.15245876      -0.74149749      -0.62324149      -0.45213111       0.20551938       0.18128627
H        0.88262985      -0.43445747      -1.20200864       0.26431717      -0.22260210       0.72118183
9
Lattice="20.0 0.0 0.0 0.0 20.0 0.0 0.0 0.0 20.0" Properties=species:S:1:pos:R:3:REF_forces:R:3 REF_energy=-4209.893442378594 config_type=Default pbc="T T T"
C       -0.17901990      -0.02864799      -0.54618318       1.79921729       0.60453931      -0.25004759
C        0.14419994       1.29435079       0.20106126      -1.35407979      -1.03993763       1.85512984
O        0.07258259      -1.19520322       0.26849128      -1.87418001       1.08565385       0.42912961
H       -1.16445303       0.18355829      -1.04938539      -0.24025375      -0.96177388       0.48888338
H        0.52669812      -0.14584661      -1.43097709      -0.33270547       0.06468988       0.65056473
H        1.11951041       1.27735658       0.77720302      -0.62605466       0.08306206      -0.58549813
H        0.03789199       2.12322784      -0.47638474       0.39595009       0.96984689      -0.78792941
H       -0.73301085       1.51602812       0.95683773       1.36531047      -0.47805513      -0.74618653
H       -0.52483804      -1.06615059       1.07334877       0.86679579      -0.32802540      -1.05404589
9
Lattice="20.0 0.0 0.0 0.0 20.0 0.0 0.0 0.0 20.0" Properties=species:S:1:pos:R:3:REF_forces:R:3 REF_energy=-4209.646962867171 config_type=Default pbc="T T T"
C       -0.36037526      -0.34466700      -0.22494642       2.49137450      -2.16708265       1.72869995
C       -0.85581400       0.71416600       0.67972335      -0.80370858       0.48070439       0.62774460
O        1.10129847      -0.38749101      -0.38016326      -1.10879084       0.89132036      -0.51082512
H       -0.54000738      -1.37032601       0.07871990      -0.30829270      -0.77894202       0.97317858
H       -0.90661910      -0.34447781      -1.10241448      -1.11652241       0.43412696      -3.11344575
H       -1.82930698       0.62384452       1.25183460       0.62290059      -0.53106906      -0.52320627
H       -0.06150035       0.95615176       1.37379761       0.49785920       0.32351872       0.71125747
H       -1.00357874       1.52615555      -0.00831358      -0.15592655       1.59761421      -0.20002519
H        1.35092637       0.35495621      -0.97831481      -0.11889326      -0.25019086       0.30662174
9
Lattice="20.0 0.0 0.0 0.0 20.0 0.0 0.0 0.0 20.0" Properties=species:S:1:pos:R:3:REF_forces:R:3 REF_energy=-4209.310455830872 config_type=Default pbc="T T T"
C       -0.02426725      -0.55730839       0.16309051       1.39031249       2.51132837       2.82735906
C       -1.24279264       0.16700658      -0.24659192       2.99919966       2.33872235      -1.00253456
O        1.16046014       0.27226810       0.02932045       0.10793378      -0.17335385      -0.99909067
H       -0.08882126      -0.59336364       1.26565877      -0.47734921      -0.89731067       0.49354741
H        0.05825186      -1.56072298      -0.16665278       0.81089121      -1.46423325      -1.09294051
H       -0.93775052       1.19384816       0.08802854      -1.08585825      -0.01968128       0.36662028
H       -1.24031508       0.33701446      -1.31223386      -0.91494252      -0.44913783      -1.13143033
H       -2.02014770      -0.22917136       0.30077364      -2.96618340      -0.77913398       0.83585776
H        0.90578056       1.17995421       0.35402141       0.13599619      -1.06719981      -0.29738844
9
Lattice="20.0 0.0 0.0 0.0 20.0 0.0 0.0 0.0 20.0" Properties=species:S:1:pos:R:3:REF_forces:R:3 REF_energy=-4209.762794128582 config_type=Default pbc="T T T"
C       -0.10200034      -0.20899313      -0.50840593      -0.75050058      -1.54795480      -1.16719170
C       -0.17721127       1.30006384      -0.22253717       1.54816547      -0.96230055      -1.05405154
O        0.28425452      -0.98779835       0.66001304      -0.79529197       0.39412357      -0.41978267
H       -0.99694313      -0.81325757      -0.99066706       0.64701846       1.58657385       0.69428007
H        0.62904289      -0.28039490      -1.40313895      -0.09112653      -0.39383978       1.43514415
H       -0.12516452       1.87090203      -1.18068254      -0.51036418       0.00165934       0.25728242
H       -0.93382908       1.63516297       0.46023039      -1.00042049       0.36642940       0.59140483
H        0.82121834       1.47831360       0.23455716      -0.16076516       0.23437657       0.23854988
H       -0.58027991      -1.21383479       1.11305384       1.11328498       0.32093234      -0.57563543
9
Lattice="20.0 0.0 0.0 0.0 20.0 0.0 0.0 0.0 20.0" Properties=species:S:1:pos:R:3:REF_forces:R:3 REF_energy=-4209.137270916684 config_type=Default pbc="T T T"
C        0.03171086       0.54280273       0.24876251       0.38791693      -4.13141994      -2.34612533
C       -1.37926118      -0.03135079      -0.31855598       3.25810810       0.79709540       0.56364607
O        1.19370837      -0.47435793       0.13486545      -1.31328034       1.83703462      -2.29659662
H        0.41188004       1.27646998      -0.43789361      -0.27674696       1.65387545      -0.02929741
H        0.10143335       0.74433746       1.25916195      -0.44832670       1.20011216       2.76253085
H       -1.42697721      -1.12367643      -0.22150559       0.14769363      -0.26892304       0.04779053
H       -2.17431360       0.41410512       0.26695227      -0.85342744       0.54897957      -0.16546370
H       -1.22393133       0.27199001      -1.36927849      -1.22022523      -0.19468341      -0.20674965
H        1.42027627      -0.14957491      -0.80654016       0.31828796      -1.44207086       1.67026521
9
Lattice="20.0 0.0 0.0 0.0 20.0 0.0 0.0 0.0 20.0" Properties=species:S:1:pos:R:3:REF_forces:R:3 REF_energy=-4209.622118173157 config_type=Default pbc="T T T"
C       -0.28366368      -0.53518286       0.05726325      -0.48217033      -0.63643606      -3.47455986
C       -0.77980009       0.76771958       0.64827052      -1.17726225       0.16966483       0.49480566
O        0.96719283      -0.18998021      -0.59293832      -0.48374195       0.89482647       1.18084920
H       -0.20360387      -1.50479074       0.61792989       0.09108791       0.71422144       0.71112413
H       -1.12195354      -0.81343507      -0.70744643       1.11361033       0.07553814       0.34968771
H       -0.13542057       1.57886219       0.26559558       0.12326820      -0.02651681       0.06578543
H       -1.86589230       1.06233117       0.36252881       1.31493958      -0.64946929       0.49787653
H       -0.67311174       0.68864282       1.73443535      -0.18971908       0.54328545       0.58176042
H        1.31871355      -0.76841271      -1.26831779      -0.31001240      -1.08511417      -0.40732922
9
Lattice="20.0 0.0 0.0 0.0 20.0 0.0 0.0 0.0 20.0" Properties=species:S:1:pos:R:3:REF_forces:R:3 REF_energy=-4209.55878758863 config_type=Default pbc="T T T"
C       -0.04769425      -0.17149664      -0.41688232      -0.87238460       0.18062688      -1.46841114
C       -0.39041209       1.34608155      -0.13052295      -0.27233592      -2.90143876      -0.68228690
O        0.41299672      -1.03453924       0.55634620       0.79643956       0.49322890       2.25018086
H       -1.00625768      -0.63046391      -0.77073730       0.07615335       0.38958203      -0.73722114
H        0.71748829      -0.15317436      -1.26056476      -0.58178443       0.08896901       0.13796277
H       -0.28025466       1.72932172      -1.11139991       0.19934688       0.95804136      -1.70530718
H       -1.41442018       1.59982124       0.11565235      -0.66693309      -0.18102906       0.86217130
H        0.33733138       1.83070105       0.44021058       1.48560004       1.07946314       1.65665338
H        0.30998882      -1.95254164       0.27868079      -0.16410179      -0.10744357      -0.31374194
9
Lattice="20.0 0.0 0.0 0.0 20.0 0.0 0.0 0.0 20.0" Properties=species:S:1:pos:R:3:REF_forces:R:3 REF_energy=-4209.648130781714 config_type=Default pbc="T T T"
C       -0.01136816       0.45847681      -0.25780706       0.50919000      -1.19086601       0.38489213
C       -1.17499585       0.09446500       0.77006906       0.73165969      -1.12616404      -1.78573180
O        1.11668942      -0.46519644      -0.42779854      -0.62177372      -0.22403389      -0.12268661
H       -0.46581315       0.68221951      -1.25523499      -0.04425187      -0.15490464       0.14509697
H        0.38527403       1.44427642       0.11304366       0.33511156      -0.54824295      -0.29904284
H       -1.98634298       0.53940337       0.17388142      -0.83335114       0.31175695       0.87635803
H       -1.41536353      -1.01236026       0.83534053       0.35857699       0.63045721      -0.25556343
H       -1.04385636       0.44235143       1.80503372      -0.00040078       0.40013800       0.00527292
H        0.93630941      -1.30205981      -0.98562006      -0.43476079       1.90185938       1.05140459
9
Lattice="20.0 0.0 0.0 0.0 20.0 0.0 0.0 0.0 20.0" Properties=species:S:1:pos:R:3:REF_forces:R:3 REF_energy=-4209.441058179905 config_type=Default pbc="T T T"
C       -0.41611793       0.17528005      -0.26442355      -0.47051079      -0.66893927      -6.59198285
C       -0.54503296       0.13905830       1.14256915       1.23203976      -2.39532400       2.24882285
O        0.88703704      -0.25436650      -0.73708349      -0.12792015       0.50919407       1.04271684
H       -1.22200103      -0.39888497      -0.96421326       0.96952262       0.28156742       1.94644524
H       -0.68908046       1.15801175      -0.69525123       0.56669411       0.86138429       0.14236748
H       -1.38066756       0.75576573       1.41453625      -1.23010043      -0.02293717       0.85219316
H       -0.49498387      -0.99321520       1.37850577      -0.65097585       1.41126621       0.67137406
H        0.35372876       0.57624485       1.62575310       0.04764496       0.09593171      -0.09858252
H        0.80490889      -0.80745290      -1.52339366      -0.33639419      -0.07214325      -0.21335420
9
Lattice="20.0 0.0 0.0 0.0 20.0 0.0 0.0 0.0 20.0" Properties=species:S:1:pos:R:3:REF_forces:R:3 REF_energy=-4209.398040589056 config_type=Default pbc="T T T"
C        0.25191079      -0.47026848      -0.33345819      -5.08547079      -0.43705441       0.02118481
C       -1.19864122       0.21181497      -0.33160126      -0.00618561      -3.36551665      -1.66166101
O        0.90546934       0.16944374       0.62024562       3.34868338      -2.51030168       3.64346092
H        0.10948588      -1.58930386      -0.15686259       0.59288615       0.91558088      -0.03918665
H        0.62771169      -0.23959879      -1.27141760       1.33346006      -0.15897779      -3.01848216
H       -1.07493831       1.22897189      -0.52963376       0.41839978       2.60917021       0.02214069
H       -1.89167462      -0.09017429      -1.18350629       0.44176138      -0.26315179       0.69631947
H       -1.65995390      -0.00084677       0.62399521      -0.50525318       0.12743369       0.69950661
H        0.79685589       1.07956347       0.59694541      -0.53828111       3.08281759      -0.36328268
9
Lattice="20.0 0.0 0.0 0.0 20.0 0.0 0.0 0.0 20.0" Properties=species:S:1:pos:R:3:REF_forces:R:3 REF_energy=-4209.474044615862 config_type=Default pbc="T T T"
C        0.11579701      -0.23398590       0.54647494       2.25942613      -1.02065122       0.12593381
C       -1.05953016       0.57887078       0.19827697      -2.34575308      -0.56799489      -0.65707225
O        0.85907681      -0.36516162      -0.64016833       1.57403566      -2.79237668       0.60464025
H        0.71210741       0.24071464       1.44245979      -0.59287206      -0.55089278      -1.03665927
H       -0.01500703      -1.34896495       0.81930307      -0.50046311       1.33824807       0.06888294
H       -1.13852986       0.73088152      -0.92866576      -0.28778172      -0.86143175       0.81539795
H       -1.97880359       0.07527448       0.62374923       0.15760816       0.91441807      -0.40540640
H       -0.93338173       1.59138753       0.50353959      -0.20597503       1.43905994       1.05740195
H        0.96179109       0.39587243      -1.17328796      -0.05822494       2.10162118      -0.57311904
9
Lattice="20.0 0.0 0.0 0.0 20.0 0.0 0.0 0.0 20.0" Properties=species:S:1:pos:R:3:REF_forces:R:3 REF_energy=-4209.31985772856 config_type=Default pbc="T T T"
C        0.28797872      -0.29321634       0.30138251      -0.43653202       0.02186949      -0.72886290
C       -1.30575956      -0.39238883       0.37896214       1.29073038       2.66963072       1.42249926
O        0.89071054       0.62887706      -0.63992851      -1.58425970      -0.44448773      -0.27025297
H        0.50493079       0.11324597       1.26373451       0.63221950       0.27049897       1.60005249
H        0.76083230      -1.30794031       0.25913311      -0.22458725       0.07924489      -0.17523621
H       -1.53606755      -0.12674822       1.54959181      -0.16543290      -0.82000084      -2.83437657
H       -1.82084478       0.30490754      -0.33741587       0.51829865       0.64092978       0.71390735
H       -1.76199018      -1.26314639      -0.01735694      -0.31714120      -2.14843254       0.11836942
H        1.84154061       0.46551614      -0.66691308       0.28670448      -0.26925276       0.15390011
9
Lattice="20.0 0.0 0.0 0.0 20.0 0.0 0.0 0.0 20.0" Properties=species:S:1:pos:R:3:REF_forces:R:3 REF_energy=-4209.3938159318195 config_type=Default pbc="T T T"
C       -0.31566887      -0.00342616      -0.42181530       3.49123619       1.38811513      -0.56294755
C        0.33126809       1.28225141       0.08204479      -3.09312792       0.26339100       2.35419674
O       -0.00204182      -1.16608158       0.36316307       0.04714992       1.52414829      -0.13812244
H       -1.35950921       0.05804512      -0.56332909      -2.13976766       0.59821718      -0.09302462
H        0.14111928      -0.04039831      -1.46240496      -0.32849247      -0.74434664       0.17892065
H        1.40205932       1.31689056       0.17602808       1.07168350      -0.56801849       0.21845835
H        0.07080208       2.13672785      -0.56627743      -0.30882219       0.11254495      -0.06621542
H       -0.19960370       1.43692002       1.12823925       1.28060527       0.30681272      -1.38426171
H       -0.20932809      -1.63863830      -0.42814128      -0.02046464      -2.88086412      -0.50700400
9
Lattice="20.0 0.0 0.0 0.0 20.0 0.0 0.0 0.0 20.0" Properties=species:S:1:pos:R:3:REF_forces:R:3 REF_energy=-4209.926661416478 config_type=Default pbc="T T T"
C        0.04463276       0.55787534       0.08262063       0.62574299      -0.33460655       1.20059193
C       -0.86501279      -0.06431604      -0.92629713      -1.83521896       1.99844950       0.17870072
O        0.74150415      -0.48083983       0.73084379      -1.25028559      -2.28858712      -2.41991856
H        0.79792260       1.22213351      -0.35907644       0.06822489       0.73007892      -0.55960389
H       -0.49141417       1.12110820       0.89282394      -0.35116152       0.26460585      -0.59903021
H       -1.49439249       0.76276117      -1.37133648       0.32508277      -0.33659962       0.06906122
H       -0.38067347      -0.53588693      -1.76467005       0.59224836      -0.78795147      -0.47783406
H       -1.61024695      -0.68115474      -0.39969889       0.12003406      -0.59476722      -0.11586208
H        1.18336819      -0.13921017       1.45432924       1.70533300       1.34937765       2.72389499
9
Lattice="20.0 0.0 0.0 0.0 20.0 0.0 0.0 0.0 20.0" Properties=species:S:1:pos:R:3:REF_forces:R:3 REF_energy=-4209.357770889055 config_type=Default pbc="T T T"
C        0.17278728      -0.31078881      -0.36647382       0.25478907      -0.64359401      -1.35473959
C       -1.27431826       0.12525538      -0.30927972       2.07915879       0.64203628       0.31919988
O        0.99693260       0.20934052       0.59033621       1.71350679       0.71972324       3.48528290
H        0.27927299      -1.33704565      -0.19089906      -0.33809230      -2.91119137      -0.50752383
H        0.62827069      -0.13310219      -1.43865637      -0.70229178       0.07610568       1.46318789
H       -1.08268697       1.16994500      -0.48452919      -1.00863213       1.49006245       0.41576378
H       -1.70028376      -0.24114422      -1.18135918      -1.52933785      -0.96560632      -2.25876531
H       -1.87244755      -0.16865865       0.54594669      -0.10550640       0.09651803       0.78639786
H        1.04814822      -0.40360071       1.43121222      -0.36359419       1.49594596      -2.34880359
9
Lattice="20.0 0.0 0.0 0.0 20.0 0.0 0.0 0.0 20.0" Properties=species:S:1:pos:R:3:REF_forces:R:3 REF_energy=-4209.792904307689 config_type=Default pbc="T T T"
C        0.50991299       0.32265829       0.17593463      -2.65640266      -0.60067093       1.19504914
C       -0.70215478       0.89008754      -0.62416463       1.90067600       0.84514181       2.07154956
O        0.13349188      -1.08724115       0.40762925       1.72621555       0.55991699      -0.26583962
H        1.44745571       0.48352262      -0.35970990       0.64576685      -0.18681527      -0.15509398
H        0.48299900       0.91788120       1.17729709       0.60268292      -0.84671182      -1.00731568
H       -0.77486787       0.31761651      -1.53131240      -0.50044157      -0.33185963      -0.96867997
H       -1.54789781       0.77278742       0.09920744      -0.08558683       0.23586452      -0.82167458
H       -0.38178900       1.95822554      -0.77489304      -0.89859864      -0.26470931      -0.30521041
H        0.94491510      -1.64454124       0.26011008      -0.73431168       0.58984371       0.25721557
9
Lattice="20.0 0.0 0.0 0.0 20.0 0.0 0.0 0.0 20.0" Properties=species:S:1:pos:R:3:REF_forces:R:3 REF_energy=-4209.563654491608 config_type=Default pbc="T T T"
C        0.37658815      -0.06428596      -0.55415058      -3.79898016      -1.31773735       2.25999543
C       -0.61554021       1.12834974      -0.23335470       4.10817264      -0.14940624       0.59053775
O        0.27707521      -0.99759780       0.69656905      -0.38272114       1.46300313      -2.15333249
H        0.02521403      -0.55910649      -1.52032033       0.18955000      -0.02631611       0.81730776
H        1.40207493       0.14945164      -0.67344122       1.83943994       0.74947132       0.02562331
H       -0.44846184       1.92793148      -0.92712591      -0.16955448       0.87943441      -1.30860273
H       -1.61025999       0.78497084      -0.28547816      -1.88531813      -0.45231011       0.25014262
H       -0.27739047       1.64449597       0.71940957      -0.70506980      -0.81071921      -0.23042679
H       -0.64290853      -0.79348495       1.01404182       0.80448125      -0.33541989      -0.25124480
9
Lattice="20.0 0.0 0.0 0.0 20.0 0.0 0.0 0.0 20.0" Properties=species:S:1:pos:R:3:REF_forces:R:3 REF_energy=-4209.624406371382 config_type=Default pbc="T T T"
C       -0.02109935       0.58656034       0.08477057       3.11857582       0.19298597       1.87011474
C       -0.86459411      -0.05709083      -0.93384663      -2.08708005       0.74980767      -0.80956134
O        0.76144146      -0.50743617       0.76491811       2.24370019       2.33113441      -0.22975275
H        0.74445083       1.43395173      -0.26146935      -1.31087024      -1.52967636      -0.15936566
H       -0.54763306       1.12097504       0.89343810      -0.71121294       0.05201990       0.05674286
H       -1.60682311       0.70227902      -1.36046622       0.93406480      -0.55570167      -0.15818789
H       -0.27568185      -0.59175359      -1.67221867       0.47499037       0.10440324      -0.84720738
H       -1.56010639      -0.84495173      -0.58313298       0.17863335      -0.01753724       0.78132430
H        1.71216548      -0.07648520       0.95968802      -2.84080140      -1.32743586      -0.50410688
9
Lattice="20.0 0.0 0.0 0.0 20.0 0.0 0.0 0.0 20.0" Properties=species:S:1:pos:R:3:REF_forces:R:3 REF_energy=-4209.304028017816 config_type=Default pbc="T T T"
C       -0.34625438       0.21708851       0.28853514       0.48763938       2.73198604       0.15977066
C       -0.46013409       0.28125208      -1.30329367       0.39880797      -1.26442753       0.24298287
O        0.74039190      -0.48589129       0.90404116      -1.90117546      -2.86328518      -4.03985190
H       -0.18860802       1.33076045       0.59218601      -0.82354495      -1.16632447       0.04108345
H       -1.32340444      -0.21369820       0.67563101       0.43060614       0.57692561      -0.22362349
H       -1.35988805       0.85441430      -1.70392597       0.99006090       0.34798549       0.78116062
H        0.53135128       0.49344451      -1.92985800      -1.86114215      -0.48057244       1.30462411
H       -0.89909648      -0.73076798      -1.44303261       0.81895203      -0.38944021      -1.01920569
H        1.09513993       0.03880745       1.55077405       1.45979620       2.50715269       2.75305942
9
Lattice="20.0 0.0 0.0 0.0 20.0 0.0 0.0 0.0 20.0" Properties=species:S:1:pos:R:3:REF_forces:R:3 REF_energy=-4209.26403319347 config_type=Default pbc="T T T"