21
Lattice="20.0 0.0 0.0 0.0 20.0 0.0 0.0 0.0 20.0" Properties=species:S:1:pos:R:3:REF_forces:R:3 REF_energy=-17618.231318982824 config_type=Default pbc="T T T"
C        2.30376427      -0.30587933       0.18615031      -0.82186952      -1.73573300      -0.28861430
C        0.84027036       1.89465206      -0.45600535       0.75550857      -1.28404705       0.27381770
C        2.90773242       0.93052894       0.27062284       1.30344865      -0.42267691      -0.10687453
C        2.17193982       2.02017022      -0.11356165      -1.02413193      -0.36403102       0.30731768
C       -3.41640020       0.71443949      -0.31764537      -0.10692318      -0.29599007      -0.02458669
C        0.94058896      -0.48981459      -0.16472233      -0.60136719      -1.39286658      -0.25755784
C        0.20867225       0.65363696      -0.48560329      -0.04061978       0.65680907       0.60588261
O       -1.04563076      -1.90944342      -0.18934745      -1.36083531      -0.66885967      -0.33318427
O       -1.73220969       0.66399092       1.44910984      -0.65258454       0.29996757      -0.69998514
O        0.95582810      -2.87688804       0.16908089       1.02872829      -0.56043229       0.04126636
C        0.14922975      -1.86040916      -0.11854030       1.81164569       2.55083388       0.65078713
C       -2.05716383       0.70296801       0.26898707       0.70917616      -0.68409480       2.38118448
O       -1.13544291       0.66738507      -0.70378351       0.12101226       0.13259729      -2.04943000
H        0.43790460      -3.68330361       0.34913023      -0.35849102      -0.08901303      -0.09304303
H        2.80120426      -1.25216172       0.37378758       0.64249373      -0.26681180       0.37539880
H        0.27771614       2.76606970      -0.40023275      -1.60279401       1.97864866      -0.54964112
H        3.94627599       1.09257866       0.61380793      -0.12816358      -0.37461214      -0.02152111
H        2.49541931       2.98530334       0.12661814       1.01175937       2.05362321       0.05681557
H       -4.05182852      -0.06866513       0.11137520      -0.18249201      -0.04820057       0.37660259
H       -3.86109358       1.69334064      -0.22200667      -0.57337101       0.83069354       0.46467763
H       -3.34186506       0.54757719      -1.37600942       0.06987040      -0.31580417      -1.10931257
21
Lattice="20.0 0.0 0.0 0.0 20.0 0.0 0.0 0.0 20.0" Properties=species:S:1:pos:R:3:REF_forces:R:3 REF_energy=-17617.850012694576 config_type=Default pbc="T T T"
C        2.27625318      -0.48442843       0.07298697       1.67002193       2.51567034      -0.96756647
C        0.75466511       1.95450619      -0.00322233       0.55636193      -3.15513269      -0.30006666
C        2.89924881       0.82373802       0.21894259      -0.34542673      -2.70720987       0.00312111
C        2.14662427       1.97758618       0.26419873      -1.34642397       0.94812225       0.00823067
C       -3.40597784       0.24635991      -0.09153040       0.06775556      -0.30445435      -0.27126223
C        0.89103159      -0.56460095      -0.13456472       0.92184887      -0.73708621      -0.84324402
C        0.19094352       0.62592285      -0.23102420      -1.27235460       3.04660736       1.29653197
O       -0.79997444      -2.04513724      -0.98270151       0.00624043      -1.02655097      -0.02134077
O       -2.03731627       1.54103058       1.41499947       0.39300329       0.49271818       0.06778523
O        1.14390386      -2.81787476      -0.04263207       1.52903055      -0.38410249       0.22942020
C        0.29419913      -1.90862710      -0.47712558      -0.90671361       2.50655419       0.41050834
C       -2.13332952       0.90645113       0.38358414      -3.14959963       0.28727953       2.68988552
O       -1.19620668       0.52282235      -0.39197576       3.80617503      -1.07818022      -3.20143924
H        0.71665522      -3.61551951       0.22350245      -0.99645277      -1.74443932      -0.05342999
H        2.97118424      -1.29153932      -0.22083349      -0.37840853      -0.24569765       0.64041772
H        0.11407951       2.81476177      -0.12594445      -0.28167180       0.57890608       0.25739262
H        3.99456241       0.85216130       0.23963635       0.15085582       0.12771168       0.26521803
H        2.61066770       2.92348316       0.55045786       0.24252712       0.38408213      -0.25327582
H       -3.65735036      -0.61482691       0.54609725       0.01856414      -0.04884237       0.40146207
H       -4.24896313       0.91631777      -0.11628753      -0.77269362       0.71519357       0.22861087
H       -3.26591590      -0.17052280      -1.08685834       0.08736048      -0.17114918      -0.58695914
21
Lattice="20.0 0.0 0.0 0.0 20.0 0.0 0.0 0.0 20.0" Properties=species:S:1:pos:R:3:REF_forces:R:3 REF_energy=-17617.75817458756 config_type=Default pbc="T T T"
C        2.13235030      -1.18317888      -0.36541722      -2.53510819      -1.05184250       3.04180695
C        0.66413526       1.00362824      -1.57637053       1.94454864      -1.22738138      -0.98186433
C        2.61171566      -0.57350937      -1.44366815       0.62568103       2.07435659      -4.24157258
C        1.93129735       0.51340838      -2.11437197      -2.04644073       0.04822644       2.45465051
C       -3.09188630       1.88185190       0.47635379       0.90048578      -2.25350956       0.03445026
C        0.87661131      -0.70331214       0.18598740      -0.30222047       1.16910260       0.68597376
C        0.17321410       0.42724000      -0.40932054       1.06359934      -1.24203466       0.86614088
O        1.16969426      -2.11919935       2.06906353      -0.68869018       0.16375896      -0.01392741
O       -2.42595069       0.45354395      -1.35396885      -0.64047721      -2.04717885      -3.79411466
O       -0.50790980      -0.60528879       2.26622812       0.88140860      -1.15995024      -0.91529045
C        0.50635405      -1.22102402       1.54876648       0.84370446       0.18948125      -0.35711141
C       -2.16337560       1.07709451      -0.41451353       1.63713366       1.26331486       4.86975118
O       -0.86505127       1.06642397       0.23390988      -0.65269726      -0.42514779      -0.76661718
H       -0.45818761      -1.28446559       2.97490770      -0.56050876       0.33010223       0.84788353
H        2.66493272      -2.02818427       0.14702502      -0.51807162       0.54406943      -0.27991152
H       -0.00919523       1.74634869      -2.01855356       0.52222411       0.45944718      -0.37465035
H        3.45729825      -0.99691962      -2.00160162       0.50793356       0.16349321       0.27430364
H        2.40291477       1.11554710      -2.86950522       0.40390626       0.04402654      -1.03190890
H       -4.02650386       1.65046664      -0.04942115      -0.79104271       0.30910367       0.73031361
H       -2.92330558       1.49380013       1.56987318      -0.56226457       1.05483311      -1.68075659
H       -2.75010094       2.86435472       0.21612227      -0.03310372       1.59372892       0.63245100
21
Lattice="20.0 0.0 0.0 0.0 20.0 0.0 0.0 0.0 20.0" Properties=species:S:1:pos:R:3:REF_forces:R:3 REF_energy=-17617.964423810998 config_type=Default pbc="T T T"
C        2.27023415      -0.30277689       0.04084297       5.41640529       2.03754595       0.86959181
C        0.79254889       1.97081452      -0.16191207       0.36880711       1.29144211      -0.38224703
C        2.94105157       0.99949168       0.11749627      -2.76552984      -3.66925474      -0.35631813
C        2.17271599       2.10474853      -0.00601820       0.72568794       1.14089348       0.03725235
C       -3.44486407       0.48782977      -0.46760017       1.76332644      -0.38791724       0.82201736
C        0.96357834      -0.43109011      -0.14189506      -4.00875976      -1.17778681      -0.95848817
C        0.16104926       0.74867607      -0.32090049       1.16030475       1.03817766       1.03005852
O       -0.94546957      -1.79983924      -0.42590027       0.60594622      -0.60733040       0.16644329
O       -1.82495680       0.22249623       1.47052605      -0.77353041       0.51703696      -0.18732908
O        0.98729464      -2.85068005       0.16261266       1.72933908       2.13633406      -0.46828956
C        0.25527706      -1.75191479      -0.16939292      -1.11960711       0.15229359      -0.09401537
C       -2.10946690       0.57277962       0.34439787      -1.05468933      -1.65377683      -0.29025265
O       -1.16497310       0.90436732      -0.55816509       0.06787476      -0.22186183      -1.31877186
H        0.40936707      -3.51521069       0.48783884      -1.55165107      -1.53848563       0.33915684
H        3.00289656      -1.11557470       0.16842581      -0.64492173      -0.52638775      -0.01378368
H        0.20397175       2.89222068      -0.18483329      -0.37133429       0.04478131      -0.17010089
H        3.95058534       1.01380322       0.35641683       2.48105209       0.14429247       0.27167787
H        2.79671247       3.01767023       0.02171791      -0.96107696       0.53541587       0.09125760
H       -4.27880228       0.57973707       0.17865651      -1.39754269       0.47539568       0.99026911
H       -3.44597928       1.16698473      -1.31021518      -0.05583310       0.72939054      -0.37662598
H       -3.52922961      -0.51597421      -0.90553850       0.38573257      -0.46019846      -0.00150235
21
Lattice="20.0 0.0 0.0 0.0 20.0 0.0 0.0 0.0 20.0" Properties=species:S:1:pos:R:3:REF_forces:R:3 REF_energy=-17618.180304517995 config_type=Default pbc="T T T"
C        2.23280902      -0.36375438       0.37935019      -1.81300056       0.22230462      -0.40098616
C        0.91620062       1.98066561      -0.39126358       1.66794792      -0.18622973       0.82081310
C        2.92053599       0.83915048       0.42126884      -1.98345668       1.11165834      -0.74507442
C        2.24871349       2.07364788       0.05184967       0.63946487      -0.98698571       0.71236459
C       -3.37982496       0.06928748      -0.22327949       3.22781747       0.79363083       0.50069739
C        0.79077436      -0.39870844       0.02126836       4.15906516      -3.46987989       0.82691937
C        0.23928712       0.75270112      -0.39856739      -1.43241282       2.02999668      -0.43838794
O       -1.15072735      -1.79565798      -0.18906896       0.54605222      -0.51872648       0.28986699
O       -1.61240833       0.81004662       1.44110053      -0.74973444       0.09862237      -0.35737814
O        0.84381542      -2.77222083      -0.44622532       1.95932554       1.05754974       0.50443490
C        0.07695427      -1.71959085      -0.15352607      -1.16386655       1.24779779      -0.38554853
C       -2.00302140       0.61379790       0.31475297       0.05910184      -1.13712239       0.00994513
O       -1.07318459       0.75663104      -0.78227595      -1.54917293       0.30847771       0.20578312
H        0.25607269      -3.48310062      -0.66167203      -1.17104995      -1.31773025      -0.26661506
H        2.78920447      -1.26243580       0.65001499      -0.19866585      -0.47385230       0.03495116
H        0.33862242       2.84361851      -0.60774384      -0.71732342       1.22372851      -0.45505661
H        3.93213221       0.84863244       0.74996507       1.30880225       0.11047583       0.38305631
H        2.81938309       3.02786143       0.27553375      -0.79656076      -0.62328548      -0.63531516
H       -3.17290895      -0.96566304      -0.49862829       0.11120540      -0.30850677      -0.44996824
H       -4.13496919       0.06866237       0.52364640      -1.08896692       0.47984318       1.01186005
H       -3.49350574       0.72304082      -1.06517091      -1.01457190       0.33823335      -1.16636175
21
Lattice="20.0 0.0 0.0 0.0 20.0 0.0 0.0 0.0 20.0" Properties=species:S:1:pos:R:3:REF_forces:R:3 REF_energy=-17617.35293758547 config_type=Default pbc="T T T"
C        1.97968715      -1.29873074      -0.04467072      -0.20746529       2.26402892      -0.30907971
C        1.37385524       1.44407947      -0.78176403      -1.71529139      -0.12548305       0.60346053
C        2.93492722      -0.49777884      -0.62737895      -1.07166154       1.72831290      -0.80362677
C        2.50982961       0.79924323      -1.15787113       3.44453755      -0.72069486      -0.87551877
C       -2.97150573       2.05369033       0.28305811       2.43729433      -1.61108793       2.30794054
C        0.69444456      -0.66491379       0.11393682      -1.09365743      -4.30150936       3.51432660
C        0.46532718       0.65845765      -0.00400656      -0.48869368       2.53143614      -1.32089189
O       -0.89569570      -1.32704366       2.05139875       2.06175978      -0.90595025      -3.90598670
O       -1.81565449       0.94971172      -1.53986898       0.25796063       0.35199584       1.44354209
O       -0.29655481      -2.85798004       0.28662168      -0.36990368       1.66013244       2.02432652
C       -0.28312649      -1.56977236       0.96751101      -0.97163519      -0.55513562       0.98946405
C       -1.81922261       1.36582508      -0.38850501       1.06438203      -0.73296468      -0.81857316
O       -0.68215051       1.28435154       0.47883880      -0.72717224      -0.33480915      -0.72620530
H       -0.74507677      -3.49940008       0.90837910       0.18320714       0.64615724      -0.40610564
H        2.30733695      -2.16133489       0.50064204      -0.31612021      -1.19832149       0.18516205
H        1.01451967       2.46398792      -1.04261513       0.58504325      -0.32053444      -0.14000726
H        3.99401568      -0.73114605      -0.63431128       0.47188705      -0.36454807      -0.35283346
H        3.27848921       1.24941740      -1.86310283      -0.76703786       0.08599507       0.76126044
H       -2.52651728       2.97918276       0.69545369      -0.80558657       0.43437044      -0.26682111
H       -3.68740507       1.97351742      -0.47245274      -2.08690085       0.92365255      -1.28549212
H       -3.25966866       1.41003624       1.17642606       0.11505414       0.54495734      -0.61834084
21
Lattice="20.0 0.0 0.0 0.0 20.0 0.0 0.0 0.0 20.0" Properties=species:S:1:pos:R:3:REF_forces:R:3 REF_energy=-17617.7633033293 config_type=Default pbc="T T T"
C        1.91548501      -1.37184919      -0.37441846      -1.43079415       0.41946915      -1.04805856
C        1.37381366       1.39195919      -0.44797781       3.48677908       0.60422595      -1.66849973
C        2.78127389      -0.53208808      -1.14481613      -0.67602158      -0.56841485       2.34147919
C        2.57323755       0.83943232      -1.04202023      -0.56792351       1.76632573      -0.14117403
C       -3.10614964       1.45631852       0.16078031       0.20323902      -1.38152848       0.86294387
C        0.64353568      -0.90379605       0.12560755       1.02967589      -0.95145898       0.02647079
C        0.48745006       0.47694891      -0.04901920      -4.47568154       0.44252274       2.13669895
O       -1.17838787      -1.30671093       1.76862358       0.26294106      -0.43783557      -0.63031575
O       -1.49118219       2.33440296      -1.36662006       0.79988427      -1.32817644       0.75380589
O       -0.01388395      -3.05027702       0.87244631       1.79819497       1.26780591      -2.39572016
C       -0.34960968      -1.75114288       0.99283660       0.89825272       0.90880134       0.19430680
C       -1.67683650       1.61652101      -0.38246454      -1.75005435       2.49670018      -0.90452894
O       -0.77315892       1.04029426       0.42766185       1.18012913      -1.51396276      -0.01855246
H       -0.41787832      -3.66346078       1.44085193      -1.66729610      -1.22753986       1.94884017
H        2.14430813      -2.43102948      -0.36931099       0.03161068      -0.62168867       0.37823421
H        1.20437924       2.47712499      -0.26528948       0.07128882      -0.55308516      -0.46530179
H        3.72704016      -0.99944356      -1.42384811       0.26331207       0.19630419      -0.61969103
H        3.29776080       1.57095143      -1.44441932       0.08566263      -0.20885235       0.00074783
H       -3.76779778       2.33784083       0.00202756       0.48803687      -0.04145822      -0.00167991
H       -3.54814467       0.61994992      -0.46669292       0.13534446       0.39027674       0.58236262
H       -3.08560853       1.12023177       1.26482277      -0.16658054       0.34156951      -1.33236790
21
Lattice="20.0 0.0 0.0 0.0 20.0 0.0 0.0 0.0 20.0" Properties=species:S:1:pos:R:3:REF_forces:R:3 REF_energy=-17617.892497573972 config_type=Default pbc="T T T"
C        2.23580236      -0.82797456       0.07614242       1.50843807       0.56716560      -1.53829784
C        1.03834209       1.14558912      -1.58798879       0.51487718      -0.32109802       0.06657290
C        2.94079914      -0.40061700      -1.08592351      -1.16000022      -0.10603857       0.44353365
C        2.27713414       0.56268296      -1.88543219       0.56018413      -1.43869664       1.69420331
C       -3.15702022       1.74466554       0.29440701      -0.13841230       0.20766409       1.54687406
C        0.98616518      -0.38091437       0.38200079      -3.04894495       2.53691244      -1.79125551
C        0.38432337       0.69822046      -0.45422616      -1.34206076      -0.63923964       1.70280185
O       -0.68110391      -0.60028507       2.08385051      -1.84703060       1.25461620       1.40607588
O       -2.29346784      -0.27607104      -0.73704942      -0.03272382      -0.60252403      -0.32214534
O        0.32807162      -2.40757051       1.25695210       0.66194654      -2.35589444       0.02442743
C        0.08846491      -1.09238492       1.32227852       1.24546364      -0.61325006       0.39780421
C       -2.11507982       0.80935240      -0.25759354       0.58118017       0.56762223      -0.00636873
O       -0.85618417       1.38019320      -0.06956347       1.61710287      -0.96472731      -0.60833956
H       -0.03449491      -3.03666251       1.96176388      -0.04994147       1.65195540      -0.73901047
H        2.69324475      -1.41918494       0.82091527       0.78447987      -1.59699144       0.80015341
H        0.62539176       1.89075984      -2.26878192      -0.26893949       0.28940851       0.04972148
H        3.88583436      -0.91881070      -1.42229452      -0.59947774       0.74985641       0.42703215
H        2.87339758       0.81959934      -2.69345026       0.86192869       1.10543489      -2.45779934
H       -3.47238178       2.62064378      -0.31484974       0.19321547      -0.39635915      -0.38890105
H       -4.06596740       1.12334116       0.57643548       0.73109909       0.65597860      -0.15850383
H       -2.65734850       2.23004646       1.20180988      -0.77238432      -0.55179509      -0.54857869
21
Lattice="20.0 0.0 0.0 0.0 20.0 0.0 0.0 0.0 20.0" Properties=species:S:1:pos:R:3:REF_forces:R:3 REF_energy=-17617.504826590968 config_type=Default pbc="T T T"
C        2.37134914      -0.29580414       0.28228213      -1.58277838       2.91596200      -0.52504307
C        0.49631484       1.72742732      -0.55265212       0.73193696       1.12358621      -0.81474118
C        2.78766559       1.01466996      -0.21462290       0.17521626      -3.93161699       0.00841800
C        1.88604482       1.85708739      -0.77465599      -0.94960727       3.88568835       0.73637211
C       -3.62520742       0.58620329      -0.18390303      -0.01372887       1.69477204      -0.08649633
C        0.97241231      -0.47206439       0.38745425      -0.09285606      -0.55264869       0.74278753
C        0.03973584       0.60734634       0.05711862      -0.10540289      -2.35747921       0.95773674
O       -0.61999146      -2.06580899       1.29118123       2.15239949       0.17483080      -0.23690406
O       -1.78603450       1.19483713      -1.65970372      -1.09040905       0.14866787      -2.06519055
O        1.40504438      -2.83241066       0.62968916       0.74148367      -1.18846336       0.29634720
C        0.54753007      -1.84512519       0.88907123      -4.11656431       0.77109851      -0.30874115
C       -2.19261663       0.78274488      -0.60550699      -0.48860976       0.90285176       0.06903515
O       -1.33146339       0.52314112       0.35272800       2.04304770      -1.51477800       2.34507256
H        0.99676875      -3.71174713       0.90639295       0.18382755       1.22634497      -0.16787103
H        2.93266194      -1.09718328       0.73887121       1.02811549      -0.24292893      -0.21682005
H       -0.26285769       2.44634245      -0.89301641       0.52034839       0.26030337       0.10146380
H        3.78449938       1.17376116      -0.53405102       1.88014184       0.29012672       0.34200032
H        2.27694588       2.93364189      -0.97971598      -0.56735062      -1.63722242      -0.52860672
H       -3.84093061       0.47437852       0.92611286       0.36059567       0.52469257      -0.93492437
H       -4.16737357       1.42098112      -0.76840210       0.10590214      -1.20429272       1.01419713
H       -3.81636236      -0.37137694      -0.61596269      -0.91570794      -1.28949491      -0.72809203
21
Lattice="20.0 0.0 0.0 0.0 20.0 0.0 0.0 0.0 20.0" Properties=species:S:1:pos:R:3:REF_forces:R:3 REF_energy=-17617.500228104236 config_type=Default pbc="T T T"
C        2.20829130      -0.37344487      -0.27362982      -2.89327422      -0.59691471       1.37604205
C        0.72092902       2.03289264       0.16295145       3.76217688      -1.44938009      -0.38535154
C        2.87909110       0.77021072      -0.06227376      -1.21859351       3.57693769      -0.87590475
C        2.16013450       2.03642726       0.06638046      -1.59377196      -1.62510913       0.45254799
C       -3.49128567       0.95315182       0.00481768       2.86695158      -0.11791794      -2.30170767
C        0.81607030      -0.40090787       0.11685888       0.55734759       0.44373070      -0.73570481
C        0.10847362       0.78507935       0.23649620      -0.24688858       0.69529786       1.10275472
O       -0.78749209      -2.02698033       0.89336930      -1.26487413      -0.41104575       0.34860800
O       -1.80881191      -0.04247535      -1.56384005       0.82523679       0.99980903       1.07070679
O        1.21044269      -2.59433315       0.03032828      -1.11681515      -3.81811827      -0.10882970
C        0.25871312      -1.72378908       0.38407190       0.63035956       1.00290027      -0.23890119
C       -2.04563887       0.54467412      -0.52640230      -3.52738646      -1.04178476       1.21294916
O       -1.24575097       0.87123499       0.56765174       0.89062945      -0.76384034      -1.88234666
H        0.71228147      -3.48260103       0.09779126       1.03241576       1.04563231       0.01135697
H        2.52447792      -1.35989293      -0.54507019       1.27190322      -0.36339642      -0.29445697
H        0.12645247       2.90010616       0.16444139      -0.88115473       1.59825828       0.20915523
H        3.87235461       0.85717417      -0.37586730       2.36085250       0.08977932      -0.16172707
H        2.68405657       2.98191745       0.13244133       0.45314314       0.46085579      -0.13340991
H       -3.49924190       1.99968953      -0.26102581      -0.80734402       0.96380881      -0.26379662
H       -4.25133946       0.33418937      -0.40568584      -1.10183776      -0.54110968      -0.91921673
H       -3.46767476       0.87150559       1.04142660       0.00092411      -0.14839286       2.51723265
21
Lattice="20.0 0.0 0.0 0.0 20.0 0.0 0.0 0.0 20.0" Properties=species:S:1:pos:R:3:REF_forces:R:3 REF_energy=-17617.743541700598 config_type=Default pbc="T T T"
C        1.99000723      -1.06087222      -0.28768471       1.93613043       0.56859735      -3.01707284
C        0.84873002       1.12516054      -1.50493786       0.52234804       0.40995859      -0.29745915
C        2.54084613      -0.60199599      -1.55704289      -1.11253051       1.37395719       1.04419260
C        1.98391382       0.56747906      -2.12005554      -0.17805727      -0.16713960       1.08998940
C       -3.18380242       1.17776710       0.42584314       1.45038195      -0.65644022       2.00234616
C        0.90583935      -0.49948710       0.31771144      -1.39145453       1.28346501       0.60713983
C        0.34047203       0.65655237      -0.31680393      -0.50270650      -1.43003660       0.97794016
O        0.38515565      -2.40441819       1.73936742       0.62924664       1.93095033      -0.53856861
O       -2.07057950       0.62062505      -1.57873211       0.94666819       0.05468639       3.54137136
O       -0.25341902      -0.38645009       2.49272668       0.76508768       1.43041420      -1.39360572
C        0.36745461      -1.16825000       1.56422757      -0.86686732      -2.16333023       0.71215859
C       -1.96484999       0.88012148      -0.33656340      -1.36767481       0.83390578      -5.32612790
O       -0.81191795       1.15353801       0.29195346       0.66155918      -0.07904738       0.15815935
H       -0.42856887      -0.91871049       3.27109486      -0.22634357      -0.93071439       0.57812241
H        2.56224554      -1.72172393       0.29422910       0.83918034      -1.84748461       0.70887298
H        0.47706038       2.01138845      -1.98158152      -0.76819347       0.81407203      -0.12331576
H        3.44042789      -0.92186236      -2.06896700       0.59848832      -0.87828615       0.34541238
H        2.44947792       1.24071052      -2.86672539       0.06041928      -0.85585456      -0.36245118
H       -3.37955743       0.31438517       1.04288686      -0.53942325      -1.14170832       0.43251014
H       -3.08007507       1.91728487       1.20200317       0.44925420       1.09116619       0.50792924
H       -3.99640019       1.39467197      -0.18163247      -1.90551292       0.35886907      -1.64754349
21
Lattice="20.0 0.0 0.0 0.0 20.0 0.0 0.0 0.0 20.0" Properties=species:S:1:pos:R:3:REF_forces:R:3 REF_energy=-17617.3694111698 config_type=Default pbc="T T T"
C        2.29448834      -0.35276199       0.14563659       1.75947138       0.36289413      -1.40668384
C        0.69717926       0.40271910      -1.96808278      -1.63048387      -0.01456772      -0.17179227
C        2.93551644      -0.01491767      -1.11367255      -4.02700754       0.34728132       0.16175607
C        2.07402360       0.35375603      -2.18333952       0.45430179      -0.71305035       1.56787833
C       -3.43410839       0.98135566      -0.28967235      -1.11828037      -0.95485921       0.47558348
C        0.91444598      -0.41630748       0.35120856      -2.42914223       0.40296467      -2.93648824
C        0.05791390       0.04335465      -0.77773881       0.30699285      -0.82339835       1.25699586
O       -0.57431834      -2.09109630       1.37783796       0.32047582       0.55359347      -0.52955006
O       -1.40333239       1.95119696       0.45796619       0.16469756       0.57932733      -0.43314207
O        0.68706487      -0.70469342       2.65450135       0.78814888       1.14546192      -2.52364241
C        0.22668964      -1.17279261       1.42767003       0.95375456       0.86787766       1.42334582
C       -2.03347807       1.15363539      -0.19604112       3.39037037      -0.25273666       2.06627962
O       -1.41684241       0.01293743      -0.75833432       2.75531855       0.43901097      -0.23919440
H        0.27018407      -1.37290072       3.13799540      -1.31508233      -2.06988328       2.86036544
H        3.03819918      -0.59104468       0.89575563      -0.08768655      -0.51949427       0.93678111
H       -0.02125731       0.60300741      -2.77579560       0.20680251       0.28374391      -0.30238831
H        3.95487673      -0.11222765      -1.37182503       1.77044685      -0.14466939       0.38207785
H        2.46650144       0.48188330      -3.17722453       0.30761351       0.32982476      -0.78768058
H       -3.43965775       0.34118437      -1.10337308      -1.16677416      -1.77071718      -2.40945494
H       -3.78721649       0.35325778       0.53769205      -0.29724163       0.26319179       0.49435237
H       -3.98162269       1.84856971      -0.52026690      -1.10669591       1.68820441       0.11460116
21
Lattice="20.0 0.0 0.0 0.0 20.0 0.0 0.0 0.0 20.0" Properties=species:S:1:pos:R:3:REF_forces:R:3 REF_energy=-17617.757691307263 config_type=Default pbc="T T T"
C        2.13364415      -0.36951724       0.35167846       1.48900706       3.74786627      -1.56355929
C        0.62816071       1.67667232      -0.61937257      -0.02432145       3.08448531      -1.68246082
C        2.77727863       0.95149149       0.12508915      -0.94714014      -1.67294337       0.39466957
C        2.00147939       1.99879229      -0.35984311      -1.43608070      -2.98762651       0.20102437
C       -3.58354176       1.08103986      -0.31795659       1.23147329       1.65975037      -0.72612374
C        0.83527676      -0.61474275      -0.08051213       0.11520691      -0.66551930       0.97110930
C        0.00347174       0.46211320      -0.57957802       2.37600077      -2.83684792       1.62802347
O       -0.31204989      -2.60937234      -0.63980874      -1.58118744      -2.21027281      -1.26542882
O       -1.60265268       1.54211943       1.11798439      -0.63076086       0.32670966      -0.32215470
O        1.01818440      -2.60446968       1.24954335      -0.88116106      -0.73054614      -1.58002334
C        0.42473207      -2.06754585       0.11004371       1.38775240       3.49671228       1.49539939
C       -2.09974784       1.06774219       0.12894355      -0.80715211      -1.08465636      -0.13161014
O       -1.31412674       0.20061519      -0.73494069      -1.45161700       1.82066985      -0.06308916