20
Lattice="20.0 0.0 0.0 0.0 20.0 0.0 0.0 0.0 20.0" Properties=species:S:1:pos:R:3:REF_forces:R:3 REF_energy=-13998.852867179132 config_type=Default pbc="T T T"
C        0.79034196      -0.59745405      -0.31780879       2.69356070       0.28704927       0.04773469
C        2.18473648      -0.15655781       0.13803438       1.81349987       1.74318056       0.53048856
O        2.42891624       0.60477613       1.08812435      -0.79790822      -1.01193837      -0.65301057
N        3.25497860      -0.49625846      -0.75671989      -3.39097242      -2.65254502      -0.72951014
C        4.57380948      -0.68381877      -0.52438371       3.43488661       1.76367086       3.93896737
C        5.31767837      -1.52159120      -1.40350620      -0.43352501       0.49449846       0.03853533
C        6.69441367      -1.72608265      -1.23928797       1.53334708       0.07506243      -0.67121676
C        7.40687233      -1.20548787      -0.09349924      -0.66412725      -0.32928113      -1.54339520
O        8.74196526      -1.61875741       0.07454715      -1.13906250       1.26415484       0.87699294
C        6.67207241      -0.27523190       0.68799873      -0.37130334      -0.45982138       2.12691534
C        5.24837457      -0.03710483       0.69199088       1.53365268      -2.41132968      -4.59649182
H        0.46852029       0.17551514      -0.98683272      -0.84253743       0.84675903      -0.65267129
H        0.19928513      -0.72485095       0.55176063      -1.18982152      -0.12725104       1.12207203
H        0.94970683      -1.49891158      -0.87626947      -0.43231685      -1.15202687      -0.60663805
H        3.05152657      -1.39683113      -1.25817214      -0.87950285       1.12628792      -0.26492729
H        4.74091703      -1.99308891      -2.25999122       0.70804370       0.47248874       0.51419805
H        7.30588789      -2.10778961      -2.13964556      -0.77363603      -0.17295055       1.42704050
H        9.09557141      -1.23137532       0.93197980      -0.57060389      -0.34926734      -1.06092045
H        7.22554283       0.09067357       1.57706563      -0.02954074       0.28372359      -0.04333841
H        4.71119403       0.58643167       1.39421761      -0.20213257       0.30953562       0.19917513
20
Lattice="20.0 0.0 0.0 0.0 20.0 0.0 0.0 0.0 20.0" Properties=species:S:1:pos:R:3:REF_forces:R:3 REF_energy=-13999.567003478584 config_type=Default pbc="T T T"
C        0.95169869       0.51927590      -0.35404063      -0.43006189      -1.25721348      -1.25160035
C        2.17055006      -0.43885959      -0.36783951      -0.07689311       2.80650900       0.92613850
O        2.01985027      -1.56944667      -0.70123647       0.07001366      -2.98590191      -0.94456924
N        3.34457296       0.13379426       0.14523849       0.05477427       0.44981711      -0.99555134
C        4.70604838      -0.31681253      -0.03255073      -0.34311453       2.29159650       2.16732521
C        5.81632672       0.55971015       0.32988722      -2.78079304       0.11937472      -0.50595658
C        7.09174578       0.10370632       0.33754535       0.90155911      -1.85734417      -0.07205928
C        7.38967079      -1.23551540      -0.01385293      -0.99471871      -0.21246753      -0.42135315
O        8.67630548      -1.67673698      -0.26291783      -0.94867920      -0.21653219       0.40646754
C        6.26228449      -2.10585164      -0.23401195       3.41126681       0.16301941      -0.65878316
C        4.96097234      -1.65988520      -0.18491800       0.41460853      -0.11260280      -0.58983744
H        0.39607802       0.30994486       0.55325386      -0.57564058      -0.28384716       0.68154133
H        0.26307255       0.26605121      -1.23941300       0.84831542       0.19717800       0.96488543
H        1.12995009       1.57823018      -0.34663757       0.48790204       1.18847015      -0.13500883
H        3.15477662       1.13469110       0.26280686       0.78054145      -0.02010423       0.14930982
H        5.68765184       1.61997713       0.60461778      -0.45521658      -0.07759229       0.00215746
H        7.85438053       0.71614625       0.74768708       1.27159191       1.11054326       0.19925700
H        9.29660230      -1.10653001       0.22342068       0.05742003       0.17201312      -0.03257850
H        6.63496599      -3.06056247      -0.64110863      -0.72726917      -0.45716085       0.33382843
H        4.12784224      -2.29351427      -0.36345701      -0.96560642      -1.01775466      -0.22361295
20
Lattice="20.0 0.0 0.0 0.0 20.0 0.0 0.0 0.0 20.0" Properties=species:S:1:pos:R:3:REF_forces:R:3 REF_energy=-13999.174448362523 config_type=Default pbc="T T T"
C        0.81690668       0.18171525      -0.46749693       1.63996553       0.55631519       0.15758245
C        2.14541071      -0.38551111       0.13692353      -0.62165972      -1.05365703      -0.74956938
O        2.14607794      -1.01838643       1.19033551       0.37427492       0.69316375      -0.23127942
N        3.26172483      -0.23557412      -0.70120634       1.00287214      -0.04061880       2.14124301
C        4.65127785      -0.50008501      -0.37242108       0.57073244      -1.15179691      -2.57050873
C        5.48272144      -1.00213213      -1.48569715      -4.04161794       0.88894466       0.44375718
C        6.75464118      -1.44129626      -1.35975324       1.28219776       0.78737498      -1.35483580
C        7.38640144      -1.07202696      -0.20829040       1.98413355      -0.48148858       2.86631055
O        8.74051489      -1.09079876      -0.12457920       1.29789486      -1.05599720      -0.07789820
C        6.69712393      -0.73537877       0.93926974      -2.00777242       0.37884058       1.33804202
C        5.31961811      -0.44378575       0.83929980      -0.53058266       0.60323319       1.48604140
H        0.03762298      -0.55854078      -0.63005734      -0.03519285      -0.91548693      -0.62012467
H        1.02326643       0.84830982      -1.35940267      -0.56975882      -0.36671294       0.67552552
H        0.36610676       0.68952939       0.38814453      -0.08191031       0.96274972       0.20557368
H        3.11338753       0.15489197      -1.61019143      -0.18333061       0.41480707      -0.82552979
H        4.92576762      -0.99233234      -2.42864724       0.13624219      -0.48842233      -0.46860391
H        7.43901364      -1.76963189      -2.15201853      -0.34690377      -0.12313969      -0.43722395
H        9.01665429      -1.49546986       0.73678013      -0.23183801       0.54128642      -0.54145195
H        7.05513243      -0.73254355       2.00837737       0.50407361       0.22899874      -1.06968555
H        4.83114119      -0.07283644       1.76741303      -0.14181999      -0.37839393      -0.36736436
20
Lattice="20.0 0.0 0.0 0.0 20.0 0.0 0.0 0.0 20.0" Properties=species:S:1:pos:R:3:REF_forces:R:3 REF_energy=-13998.606080879279 config_type=Default pbc="T T T"
C        0.92291545       0.20249952      -0.43542024       0.16307211       0.82301345       0.39316579
C        2.25185212      -0.12498114       0.16357811       2.49571370      -1.83809062       0.64527335
O        2.44780940      -0.16172557       1.39342804      -0.30333566       0.59601976      -1.19988420
N        3.22782380      -0.65568191      -0.76870408      -0.14969914      -0.57825611       0.57795117
C        4.60700049      -1.17952340      -0.51423909      -3.70516565       2.26826785      -1.49266832
C        5.46772488      -1.40819971      -1.57215944      -1.11047219      -1.51203865      -2.17133803
C        6.83762193      -1.40461196      -1.38878428      -0.28619350       0.61027405       0.59037968
C        7.32378400      -0.88768932      -0.14433050       2.22902269      -0.50056472       0.94908837
O        8.70601021      -0.87293573      -0.03650068       0.29017789       0.15193029      -0.44798680
C        6.47275893      -0.59106934       0.93566827      -1.66637868      -1.32539163       0.74833581
C        5.08456292      -0.88131951       0.69753304       3.60558415       1.53102676       2.30626253
H        0.26342310      -0.13651135       0.36471759      -0.68037343      -0.62828854       0.04357115
H        0.86149419      -0.42266707      -1.35531710      -0.76688493       0.84457267      -0.08703734
H        0.68064067       1.32142945      -0.38724518       0.46635939      -0.95603086      -0.95595800
H        2.97389730      -0.62999430      -1.76152896      -0.03018681      -0.00341016       0.15080744
H        4.94310547      -1.73511143      -2.54194363       1.03826081       0.47283466       0.77903869
H        7.47290337      -1.74401468      -2.21087438       0.49787782       0.16810191       0.11857655
H        9.14282055      -0.51138709       0.77521212      -1.21959341      -0.17972427      -0.34314888
H        6.66300759      -0.35162982       2.06008831       0.58048808      -0.10495279      -2.02524348
H        4.44269151      -0.49388951       1.42976338      -1.44827334       0.16070695       1.42081457
20
Lattice="20.0 0.0 0.0 0.0 20.0 0.0 0.0 0.0 20.0" Properties=species:S:1:pos:R:3:REF_forces:R:3 REF_energy=-13999.325267532718 config_type=Default pbc="T T T"
C        0.84570986       0.00763246      -0.56619425      -0.21362447       2.13507283       1.16754122
C        2.18854171      -0.53529504      -0.09370648       1.17870469      -0.40589784      -2.28821863
O        2.28505048      -1.56858694       0.54181165      -0.47549698      -0.37786104       0.76670989
N        3.35697952       0.06910657      -0.64380626      -0.32178050       0.56004853       1.15549216
C        4.70143106      -0.28311663      -0.24066725      -1.43146346      -0.62360445      -0.89203826
C        5.68860153       0.69289738      -0.13708040      -1.33344628       1.53780691      -0.02385634
C        6.96967505       0.30167325       0.15183980       0.98393900      -1.41679043      -0.72010942
C        7.32057682      -1.06782147      -0.04102340       1.57735582       0.55076114       0.61599152
O        8.62427494      -1.52699187      -0.00048094       0.61134626       0.58916566       0.48038136
C        6.34995964      -2.06809876      -0.25787126       1.20847246      -1.43245359       0.34382339
C        5.03168282      -1.67867820      -0.19636756      -0.81921650       1.04632944      -0.43024711
H        0.06989407      -0.68406920      -0.93423567       0.26200364      -0.53278183       0.43624483
H        0.78575143       0.88742532      -1.24946077       0.77650703      -0.28748208      -0.29942095
H        0.52562570       0.54085408       0.37972772      -0.60723799      -0.66364954      -0.30065045
H        3.26458031       1.05734033      -0.92266199      -0.06419325      -0.32650397      -0.05548836
H        5.50027888       1.81343736      -0.29215731      -0.14097554      -1.29191972       0.40038874
H        7.66002830       1.10603222       0.35226774       1.00879571       0.18393188       0.08196127
H        9.29642719      -0.87935809       0.37511335      -1.33514577      -0.51980588      -0.58370582
H        6.74327552      -3.16624559      -0.38826888      -0.88103770       1.84602042       0.33775960
H        4.15951758      -2.32851174      -0.18821411       0.01649373      -0.57038642      -0.19255865
20
Lattice="20.0 0.0 0.0 0.0 20.0 0.0 0.0 0.0 20.0" Properties=species:S:1:pos:R:3:REF_forces:R:3 REF_energy=-13999.140024403809 config_type=Default pbc="T T T"
C        0.79202674      -0.36822197      -0.20357267       1.97840575      -1.61596716       2.28723812
C        2.26885485      -0.07954956       0.11810071      -0.73396474      -1.85235716      -2.16442362
O        2.53690200       0.59708272       1.08066493       1.04878490       0.56529677       0.53521862
N        3.19683014      -0.87643978      -0.71177193      -0.12321024       2.12556597       0.96541595
C        4.62563409      -0.69321943      -0.57640333      -1.43576199      -1.67102723       0.14473341
C        5.39721594      -1.36339699      -1.52944706      -0.15298388       0.25961045      -0.26037438
C        6.77001031      -1.52570333      -1.38532392       2.16957004      -0.88920095      -0.47150031
C        7.41305459      -1.11113020      -0.20334910      -3.55228549       1.21496789       2.04794776
O        8.58606053      -1.57346647       0.21619759       2.45883709       0.72534635      -0.18842679
C        6.58704643      -0.42682531       0.82146998      -0.00370589      -0.59902095      -2.00872543
C        5.20808186      -0.27970354       0.63520773       0.31997281       0.31391061       0.30549786
H        0.74095453      -0.89004327      -1.12236523      -0.84527617      -0.28251646      -1.82106123
H        0.16819545       0.46964111       0.05474743      -0.65069915       0.72313720      -0.30436760
H        0.60552708      -1.18627709       0.57200989      -0.27108981       0.65833877      -0.50055783
H        2.91297551      -1.26953902      -1.64938225      -0.03678909       0.65258912       1.26814468
H        4.83078107      -1.87928590      -2.31023435       0.18304295      -0.00294854      -0.59043537
H        7.45519073      -2.08311643      -2.12551925      -1.18040892       0.53151875       0.77062738
H        9.00563378      -0.79751971       0.67625157      -0.04699817      -0.95474274      -0.11771528
H        6.99167548      -0.05256908       1.76115019       0.49373850      -0.17206691       0.37016922
H        4.53696918       0.03771316       1.45499004       0.38082161       0.26956607      -0.26740537
20
Lattice="20.0 0.0 0.0 0.0 20.0 0.0 0.0 0.0 20.0" Properties=species:S:1:pos:R:3:REF_forces:R:3 REF_energy=-13999.384136541596 config_type=Default pbc="T T T"
C        1.00364028       0.22769896      -0.47835436      -1.87107304       0.38778041       2.57694919
C        2.21986685      -0.29332261       0.11237265       2.24383121      -0.79115399       0.33503248
O        2.37037938      -0.53920635       1.29873764      -0.55591996      -0.02334716       1.40974026
N        3.27867325      -0.47450346      -0.74292437      -0.07003315      -0.32621457      -1.06704055
C        4.61898116      -0.78917460      -0.47436983      -1.96281761       0.18088615      -0.40119663
C        5.44588063      -0.84336463      -1.58345673       1.14226717       0.52455795      -1.01788975
C        6.82134646      -0.84411459      -1.47567982       0.36296782      -0.70203127       3.97875678
C        7.35706082      -1.03037854      -0.11790896       0.27931724       0.29883433      -2.25062551
O        8.69097751      -1.09237659       0.16963232      -0.33667027      -0.03522674       0.51697484
C        6.45833262      -1.17009374       0.91252097      -1.11711582       0.03521054       2.47275786
C        5.07528341      -0.98369650       0.80670735      -0.08805709      -0.82139767       0.22135897
H        0.33250112       0.48451198       0.39344688       0.47181809       0.07923348      -0.44926818
H        0.44860643      -0.54654323      -0.93682914      -0.83019927      -1.15305999      -1.51946296
H        1.17124920       1.11102326      -1.02489337       0.11590337       1.43303744      -1.51865466
H        3.12876469      -0.49463102      -1.74540004      -0.56588890       0.38675598      -0.34503895
H        5.09268067      -0.76838607      -2.60406485      -0.74572373       0.23649809      -0.53418781
H        7.48076999      -0.62436373      -2.26826628       0.99452886      -0.01422653      -1.53353903
H        9.20663738      -0.97140093      -0.63283350       0.23962943       0.05167845      -0.59167860
H        6.70323625      -1.33382840       1.96933362       1.05301297      -0.16815673      -0.05639396
H        4.25725166      -1.13808451       1.57198295       1.24022286       0.42034173      -0.22659384
20
Lattice="20.0 0.0 0.0 0.0 20.0 0.0 0.0 0.0 20.0" Properties=species:S:1:pos:R:3:REF_forces:R:3 REF_energy=-13999.145303060763 config_type=Default pbc="T T T"
C        0.87452626       0.25399408      -0.47477698       1.19790564      -2.53360672      -2.33659265
C        2.14102965      -0.35475592       0.06426951       1.63401466      -0.99710588       0.73238983
O        2.22270833      -0.87681270       1.17433658      -0.48258397       0.18954697       0.06201614
N        3.23996937      -0.42146205      -0.79957571       0.82955028       1.20975200      -0.98362121
C        4.62073207      -0.64282091      -0.50667957       0.97006497       0.00696507       0.53402845
C        5.61814388      -0.04032046      -1.37027021      -1.23488977      -0.56765941      -1.07192272
C        6.97416014      -0.29334446      -1.19152892       1.48078211      -1.38111700       0.78237717
C        7.37513415      -1.13087107      -0.10127660      -0.35000864       2.29394546      -0.35934930
O        8.71757692      -1.26910364       0.16445270       0.33376631      -0.95350316      -0.30093435
C        6.41091531      -1.49751044       0.85329570       6.02284059      -1.82621094       1.57889802
C        5.12515759      -1.39024592       0.63929996      -5.56478319       0.90633252      -1.52940979
H        0.37231257       0.51182727       0.40393897      -1.61685851       0.93304396       1.53972727
H        0.38145536      -0.68490369      -0.97539635       0.23003356       1.67326244       0.51002911
H        1.09443530       1.05160363      -1.20844081      -0.46525134       0.08339867       0.05096425
H        3.20484665       0.24482555      -1.59391650      -0.33155192      -0.50291487       0.19911826
H        5.34577050       0.41607933      -2.37269376      -0.19631524       0.01799294       1.04436023
H        7.86045184       0.00608477      -1.82896629      -1.17974892       0.17227985       0.13023676
H        9.03197481      -1.99366722      -0.42554192       0.08402905       0.41635287       0.34188550
H        6.91145119      -2.00943111       1.76237225      -1.11308726       0.46582326      -1.01397905
H        4.41747312      -1.91094225       1.29689419      -0.24790833       0.39342192       0.08977819
20
Lattice="20.0 0.0 0.0 0.0 20.0 0.0 0.0 0.0 20.0" Properties=species:S:1:pos:R:3:REF_forces:R:3 REF_energy=-13999.373695831107 config_type=Default pbc="T T T"
C        0.80269641       0.10872902       0.45994819      -1.70720229      -2.16035289      -0.14017963
C        2.12313557      -0.13502058      -0.21858474       2.35639364       0.53190375      -0.95413776
O        2.34263613       0.27417392      -1.37631554      -0.46877077      -0.52042552       1.39245669
N        3.16768886      -0.69751993       0.56022986       1.15985146      -0.19056029      -1.96391856
C        4.61443480      -0.92547330       0.08708417      -2.89521037       3.75042622       0.18667571
C        5.34539706       0.19362145      -0.47019423       0.73811002      -0.70918223       0.01881975
C        6.74513082       0.01263703      -0.61735252      -0.88177195      -0.70700291       1.17118473
C        7.45305196      -1.14925509      -0.14562801       0.56460766       0.82812460      -1.64848719
O        8.79479624      -1.38451305      -0.46166693      -0.57657954       2.05935991       0.43536253
C        6.69882908      -2.14916548       0.41787773      -0.66541794      -1.42737819      -0.08701127
C        5.29615226      -2.04305372       0.45071502       0.45349724      -1.02387132       0.73650894
H        0.55449555       1.16522847       0.44999127       0.04820181       0.75186619       0.29068527
H        0.52669286      -0.41392836       1.43810088       0.79533506       0.71822598      -0.56603411
H        0.02699386      -0.34170874      -0.24229854       0.53594747       0.39456035       0.30118581
H        2.87927356      -1.16814592       1.40926608       0.15331102      -0.24843207       0.41474377
H        4.93888733       1.18769973      -0.81454166      -0.13762765      -1.02545897       0.47218587
H        7.29818343       0.87952471      -0.90000853       0.85089568       0.94240093      -0.77897277
H        9.16607678      -0.46865045      -0.69200359      -0.40123679      -1.51136975       0.24191504
H        7.13057136      -3.12480497       0.68800338       0.24581720       0.13821124       0.06688401
H        4.70058124      -2.87553358       0.80520729      -0.16815102      -0.59104498       0.41013317
20
Lattice="20.0 0.0 0.0 0.0 20.0 0.0 0.0 0.0 20.0" Properties=species:S:1:pos:R:3:REF_forces:R:3 REF_energy=-13999.102809001668 config_type=Default pbc="T T T"
C        0.85974597      -0.27790205      -0.78621251      -0.20790999       0.31169221       1.33916744
C        2.24477149       0.10521938      -0.15010311       1.19477933       0.73449155      -0.93020372
O        2.67330312       1.26604219      -0.12303835      -0.85505675      -0.60419808       0.02533154
N        3.06868590      -0.94441382       0.29139735       1.23501787       0.16089207      -1.02573727
C        4.55014749      -0.96975416       0.11521005      -1.57427225      -0.54428088      -0.12426131
C        5.15202916      -2.18484595      -0.25294594      -4.16593659      -1.74170403      -0.40560381
C        6.46728253      -2.35949939      -0.37777074       4.29320840      -1.68479287       0.43559974
C        7.34478101      -1.27507940      -0.10190080       1.94085936      -0.14434733      -0.51939636
O        8.71762111      -1.39045362      -0.14339404      -1.65607046      -4.01654398      -1.01580561
C        6.83814271      -0.02041860       0.05280969      -3.67159043       0.38002236       0.03195465
C        5.40783130       0.10534526       0.15612983      -0.18475546       2.74750913       0.63695671
H        0.38133130      -1.03236019      -0.02209649       0.28127457       1.02747451      -1.49170796
H        0.89632641      -0.68487458      -1.86810603       0.18417773       0.31382334       1.41953164
H        0.30060586       0.73316111      -0.78799923       0.37127223      -1.42302053      -0.03028600
H        2.68808448      -1.84172381       0.00946599      -0.12090232      -0.55452549       0.15790836
H        4.45624759      -3.05095493      -0.55592991       0.80790560       0.80980590       0.60847994
H        6.94186740      -3.39566666      -0.52558554      -0.66716881       1.29239234      -0.12372724
H        9.18853597      -0.63233757       0.09267986       0.85940510       2.60436286       0.78587361
H        7.44007760       0.84855171      -0.07530093       0.77558380       1.10385726       0.25806656
H        4.83188140       1.08998488       0.25857027       1.16017907      -0.77291037      -0.03214100
20
Lattice="20.0 0.0 0.0 0.0 20.0 0.0 0.0 0.0 20.0" Properties=species:S:1:pos:R:3:REF_forces:R:3 REF_energy=-13999.155791840407 config_type=Default pbc="T T T"
C        0.97357811       0.32800980       0.19458096      -3.54425923      -1.47084963       0.35007919
C        2.09009191      -0.56303049      -0.24287337       1.37828688       0.57788973       0.18278137
O        2.03050987      -1.74519553      -0.55511142       0.00923957       0.31800704       0.09781777
N        3.29805215       0.16525847      -0.09112593       1.82752565      -2.64416215      -0.53024035
C        4.66317590      -0.38138258      -0.10294577      -0.05189849       0.51882753       0.13415754
C        5.10330557      -1.64111948      -0.62425049      -1.03669464       1.06709532      -0.67358510
C        6.44335077      -1.93388783      -0.80464963       1.57522726       0.69390505       1.75637695
C        7.37980351      -1.12458668      -0.06191924       0.69349033      -0.73953097      -1.97251453
O        8.72199654      -1.32658636      -0.16018391       0.26243347      -2.09669397      -0.58259191
C        6.97233069       0.01137754       0.58417658      -0.99626158       0.19928502      -0.59680122
C        5.67867791       0.46854350       0.44910972      -1.88910707      -0.76795189       0.62372848
H        0.75151193       1.14321190      -0.48973400       0.17991659       0.62371712      -0.66879164
H        1.25186884       0.80196167       1.16460894      -0.49343958      -0.30804489      -0.03545664
H       -0.11220953      -0.28122121       0.19616914       2.75534122       1.31750076       0.42058547
H        3.33331537       1.17151104      -0.11240729      -0.48092037       0.63221091       0.25335871
H        4.41153736      -2.31884680      -1.09515898      -0.85435211      -0.27769868      -0.23765683
H        6.78332307      -2.76454040      -1.43664830       0.01787945      -0.15627566       0.19288087
H        9.30653870      -0.57016153      -0.03544087      -0.38599128       0.63500267       0.29135638
H        7.77546787       0.55641764       0.99583320       0.95937664       1.33182304       1.06983210
H        5.33198171       1.34067925       1.00873778       0.07420728       0.54594361      -0.07531666
20
Lattice="20.0 0.0 0.0 0.0 20.0 0.0 0.0 0.0 20.0" Properties=species:S:1:pos:R:3:REF_forces:R:3 REF_energy=-13999.324956396345 config_type=Default pbc="T T T"
C        0.83514499      -0.12715818      -0.37818551       1.14747849       1.99353304       2.25789062
C        2.28481766      -0.26500508       0.12113494      -0.23552302      -1.18399479       1.51141042
O        2.65532970      -0.20775606       1.31419681      -1.33378463       0.77309548      -1.24044048
N        3.15930613      -0.69114605      -0.83536241       1.27800841      -0.59546172      -0.93899725
C        4.56492946      -0.88050029      -0.59079686      -1.16352752       0.02468748       2.43159496
C        5.44668131      -0.73887259      -1.61892117       1.27854356       0.61572706      -0.84539676
C        6.81324550      -0.75804803      -1.41792158       1.80495831      -0.59188378       2.09915169
C        7.34439402      -0.98184975      -0.09753789      -1.22937810       0.46268219      -1.23060657
O        8.67547365      -1.11316370       0.08589880       0.67073174       0.29294902      -0.43042950
C        6.43309667      -1.05126469       0.98028336       2.57278740       0.22922372       0.25796423
C        5.09720179      -1.04491209       0.76886358      -1.84509117      -0.39891267      -2.65615187
H        0.20270011       0.17248094       0.48579672      -0.13328552      -1.06658907       0.02039075
H        0.54659553      -0.90899563      -1.02270318      -0.85598590      -1.65224244      -0.73900374
H        0.73120165       0.78611100      -0.92879676       0.23444732       1.16476844      -1.20422263
H        2.85916541      -0.88747945      -1.81277244       0.08237480       0.39469230       0.75754736
H        5.22616607      -0.39270215      -2.60658698      -1.07791298       0.08604407      -1.08929797
H        7.53750218      -0.49708419      -2.19065870       0.08863801      -0.19390992      -0.42431599
H        8.93343142      -0.65441345       0.90169287       0.03540100      -0.10445235       0.31614407
H        6.91994502      -1.02217895       1.98364040      -0.56872050      -0.49090566      -0.07993729
H        4.40212845      -1.35436087       1.50557122      -0.75015970       0.24094959       1.22670590
20
Lattice="20.0 0.0 0.0 0.0 20.0 0.0 0.0 0.0 20.0" Properties=species:S:1:pos:R:3:REF_forces:R:3 REF_energy=-13999.056933860626 config_type=Default pbc="T T T"
C        0.90950776       0.21176585      -0.49922826      -0.23367023       1.32522209       0.09864994
C        2.17962777      -0.32242577       0.03812434       0.80131581       1.56000083      -1.82942122
O        2.34707389      -0.48938430       1.21029073       0.45561670      -0.93772399       2.40712927
N        3.25628737      -0.30888889      -0.87370860       0.07084613      -0.97108410       0.79139259
C        4.54006339      -0.70836392      -0.41946015       0.52782449       0.66188005       0.59882673
C        5.38834781      -1.29156484      -1.36569252      -2.36079599       0.95689917      -2.53448753
C        6.72949381      -1.39148649      -1.30819919       2.83654741      -1.54667691       1.53488969
C        7.39147413      -1.23040103      -0.03101704      -0.52249654       1.77534146      -2.46493718
O        8.75830918      -1.33858472      -0.03629842      -0.22546348      -0.67467145       0.70194807
C        6.63511663      -0.52637084       0.90016307      -1.58789190      -1.39624305       2.30906678
C        5.16603924      -0.39413723       0.79898238       2.09782783       0.83150071       1.23818043
H        0.57324351      -0.46227611      -1.26051064      -0.81876553      -0.63284644      -1.10085395
H        1.15308893       1.22671623      -0.98998271      -0.69240157      -0.99357817       0.68808319
H        0.19329076       0.22904426       0.36577338       0.20373565       0.35563000      -0.70799469
H        3.12518438      -0.32301686      -1.90609113      -0.10850703      -0.02535730       0.81669851
H        4.83943899      -1.32938794      -2.34013760       0.66834149      -0.60943217      -0.03919287
H        7.39197515      -1.79056395      -2.09301976      -0.35817642       0.06489788      -0.33593020
H        9.03004135      -1.56606833       0.87902278       0.08567245       0.25806609      -0.21294406
H        7.11488100      -0.41987204       1.93188417      -0.59424528       0.42547298      -0.91601462
H        4.73635691       0.09421048       1.71818987      -0.24531404      -0.42729770      -1.04308882
20
Lattice="20.0 0.0 0.0 0.0 20.0 0.0 0.0 0.0 20.0" Properties=species:S:1:pos:R:3:REF_forces:R:3 REF_energy=-13999.115405947634 config_type=Default pbc="T T T"
C        0.78646383      -0.45238991      -0.30874132       1.38155141       1.37622522      -1.78302854
C        2.19301626      -0.05610277       0.10547425       1.38477712      -0.52774067       0.47671409
O        2.45829146       0.75105145       1.01571302      -0.36275200      -1.08873557      -1.63390297
N        3.20254912      -0.74014045      -0.68326646      -0.61445354       2.09231569       1.96471385